249
# CELL(abcABC):   14.27260    14.27260    14.27260    90.00000    90.00000    90.00000  cell{angstrom}  Traj: positions{angstrom} Step:          52  Bead:       0 
      Fe  5.30187e-02  5.22571e-02  4.55022e-02
      Fe  1.51535e+00  1.51460e+00  1.43118e+00
      Fe  2.90105e+00  7.19130e-03  4.56804e-02
      Fe  4.28677e+00  1.51453e+00  1.43135e+00
      Fe  5.74912e+00  5.22324e-02  4.55641e-02
      Fe  7.18310e+00  1.47140e+00  1.47454e+00
      Fe  8.60956e+00  4.59669e-02  4.55546e-02
      Fe  1.00373e+01  1.47248e+00  1.47329e+00
      Fe  1.14650e+01  4.59473e-02  4.54480e-02
      Fe  1.28916e+01  1.47134e+00  1.47440e+00
      Fe  7.92405e-03  2.90044e+00  4.54728e-02
      Fe  1.51543e+00  4.28599e+00  1.43101e+00
      Fe  4.28657e+00  4.28596e+00  1.43108e+00
      Fe  5.79402e+00  2.90025e+00  4.55772e-02
      Fe  7.18300e+00  4.32926e+00  1.47447e+00
      Fe  8.61259e+00  2.90034e+00  4.55018e-02
      Fe  1.00372e+01  4.32817e+00  1.47342e+00
      Fe  1.14619e+01  2.90038e+00  4.55061e-02
      Fe  1.28916e+01  4.32937e+00  1.47440e+00
      Fe  5.29055e-02  5.74856e+00  4.55083e-02
      Fe  1.47205e+00  7.18246e+00  1.47445e+00
      Fe  2.90097e+00  5.79359e+00  4.54332e-02
      Fe  4.32996e+00  7.18250e+00  1.47445e+00
      Fe  5.74900e+00  5.74846e+00  4.55650e-02
      Fe  7.17956e+00  7.17900e+00  1.47262e+00
      Fe  8.60955e+00  5.75474e+00  4.55938e-02
      Fe  1.00373e+01  7.18191e+00  1.47281e+00
      Fe  1.14650e+01  5.75474e+00  4.55261e-02
      Fe  1.28950e+01  7.17903e+00  1.47272e+00
      Fe  4.66153e-02  8.60896e+00  4.54975e-02
      Fe  1.47311e+00  1.00367e+01  1.47345e+00
      Fe  2.90096e+00  8.61221e+00  4.55438e-02
      Fe  4.32896e+00  1.00367e+01  1.47344e+00
      Fe  5.75538e+00  8.60896e+00  4.54877e-02
      Fe  7.18253e+00  1.00366e+01  1.47271e+00
      Fe  8.60880e+00  8.60823e+00  4.55457e-02
      Fe  1.00373e+01  1.00367e+01  1.47263e+00
      Fe  1.14657e+01  8.60822e+00  4.55340e-02
      Fe  1.28920e+01  1.00367e+01  1.47268e+00
      Fe  4.66030e-02  1.14644e+01  4.54903e-02
      Fe  1.47206e+00  1.28908e+01  1.47456e+00
      Fe  2.90105e+00  1.14611e+01  4.56051e-02
      Fe  4.33004e+00  1.28908e+01  1.47460e+00
      Fe  5.75540e+00  1.14643e+01  4.55322e-02
      Fe  7.17969e+00  1.28942e+01  1.47261e+00
      Fe  8.60883e+00  1.14651e+01  4.54897e-02
      Fe  1.00373e+01  1.28914e+01  1.47269e+00
      Fe  1.14657e+01  1.14651e+01  4.54757e-02
      Fe  1.28950e+01  1.28943e+01  1.47258e+00
      Fe  6.23445e-02  6.17499e-02  2.88424e+00
      Fe  1.47202e+00  1.47139e+00  4.32753e+00
      Fe  2.90102e+00  5.21730e-02  2.89368e+00
      Fe  4.32996e+00  1.47131e+00  4.32760e+00
      Fe  5.73975e+00  6.16609e-02  2.88429e+00
      Fe  7.17961e+00  1.47331e+00  4.32417e+00
      Fe  8.60927e+00  4.61282e-02  2.89974e+00
      Fe  1.00373e+01  1.47320e+00  4.32704e+00
      Fe  1.14654e+01  4.61354e-02  2.89971e+00
      Fe  1.28950e+01  1.47332e+00  4.32413e+00
      Fe  5.29601e-02  2.90036e+00  2.89346e+00
      Fe  1.47205e+00  4.32927e+00  4.32748e+00
      Fe  2.90102e+00  2.90026e+00  2.93848e+00
      Fe  4.32991e+00  4.32931e+00  4.32753e+00
      Fe  5.74902e+00  2.90037e+00  2.89364e+00
      Fe  7.17962e+00  4.32743e+00  4.32416e+00
      Fe  8.60959e+00  2.90033e+00  2.89994e+00
      Fe  1.00373e+01  4.32759e+00  4.32701e+00
      Fe  1.14650e+01  2.90036e+00  2.89983e+00
      Fe  1.28950e+01  4.32746e+00  4.32412e+00
      Fe  6.24536e-02  5.73897e+00  2.88415e+00
      Fe  1.47397e+00  7.17900e+00  4.32406e+00
      Fe  2.90104e+00  5.74841e+00  2.89348e+00
      Fe  4.32808e+00  7.17897e+00  4.32414e+00
      Fe  5.73956e+00  5.73893e+00  2.88416e+00
      Fe  7.17700e+00  7.17630e+00  4.32154e+00
      Fe  8.60915e+00  5.75458e+00  2.89976e+00
      Fe  1.00373e+01  7.18147e+00  4.32671e+00
      Fe  1.14654e+01  5.75464e+00  2.89979e+00
      Fe  1.28976e+01  7.17635e+00  4.32149e+00
      Fe  4.67167e-02  8.60860e+00  2.89976e+00
      Fe  1.47377e+00  1.00366e+01  4.32713e+00
      Fe  2.90101e+00  8.60897e+00  2.89989e+00
      Fe  4.32827e+00  1.00367e+01  4.32710e+00
      Fe  5.75524e+00  8.60855e+00  2.89975e+00
      Fe  7.18221e+00  1.00366e+01  4.32672e+00
      Fe  8.60887e+00  8.60823e+00  2.89979e+00
      Fe  1.00373e+01  1.00367e+01  4.32713e+00
      Fe  1.14657e+01  8.60828e+00  2.89983e+00
      Fe  1.28924e+01  1.00366e+01  4.32674e+00
      Fe  4.66755e-02  1.14647e+01  2.89981e+00
      Fe  1.47388e+00  1.28943e+01  4.32420e+00
      Fe  2.90105e+00  1.14643e+01  2.90006e+00
      Fe  4.32811e+00  1.28943e+01  4.32422e+00
      Fe  5.75538e+00  1.14647e+01  2.89989e+00
      Fe  7.17708e+00  1.28970e+01  4.32155e+00
      Fe  8.60894e+00  1.14650e+01  2.89979e+00
      Fe  1.00373e+01  1.28918e+01  4.32667e+00
      Fe  1.14657e+01  1.14650e+01  2.89982e+00
      Fe  1.28976e+01  1.28970e+01  4.32149e+00
      Fe  4.67418e-02  4.60796e-02  5.75373e+00
      Fe  1.47312e+00  1.47248e+00  7.18176e+00
      Fe  2.90098e+00  4.59403e-02  5.75410e+00
      Fe  4.32879e+00  1.47253e+00  7.18171e+00
      Fe  5.75533e+00  4.60807e-02  5.75377e+00
      Fe  7.18249e+00  1.47321e+00  7.18180e+00
      Fe  8.60887e+00  4.61776e-02  5.75341e+00
      Fe  1.00373e+01  1.47322e+00  7.18178e+00
      Fe  1.14657e+01  4.61293e-02  5.75339e+00
      Fe  1.28921e+01  1.47321e+00  7.18181e+00
      Fe  4.66733e-02  2.90037e+00  5.75402e+00
      Fe  1.47315e+00  4.32816e+00  7.18170e+00
      Fe  2.90100e+00  2.90033e+00  5.75718e+00
      Fe  4.32880e+00  4.32817e+00  7.18172e+00
      Fe  5.75535e+00  2.90046e+00  5.75404e+00
      Fe  7.18250e+00  4.32751e+00  7.18189e+00
      Fe  8.60887e+00  2.90040e+00  5.75339e+00
      Fe  1.00373e+01  4.32740e+00  7.18186e+00
      Fe  1.14657e+01  2.90040e+00  5.75336e+00
      Fe  1.28922e+01  4.32754e+00  7.18181e+00
      Fe  4.68141e-02  5.75459e+00  5.75367e+00
      Fe  1.47387e+00  7.18187e+00  7.18171e+00
      Fe  2.90098e+00  5.75469e+00  5.75399e+00
      Fe  4.32819e+00  7.18185e+00  7.18179e+00
      Fe  5.75524e+00  5.75455e+00  5.75372e+00
      Fe  7.18213e+00  7.18144e+00  7.18183e+00
      Fe  8.60885e+00  5.75454e+00  5.75353e+00
      Fe  1.00373e+01  7.18178e+00  7.18191e+00
      Fe  1.14657e+01  5.75459e+00  5.75342e+00
      Fe  1.28924e+01  7.18150e+00  7.18186e+00
      Fe  4.67343e-02  8.60823e+00  5.75341e+00
      Fe  1.47385e+00  1.00366e+01  7.18184e+00
      Fe  2.90104e+00  8.60822e+00  5.75342e+00
      Fe  4.32815e+00  1.00366e+01  7.18183e+00
      Fe  5.75527e+00  8.60820e+00  5.75340e+00
      Fe  7.18250e+00  1.00367e+01  7.18184e+00
      Fe  8.60824e+00  8.60752e+00  5.75287e+00
      Fe  1.00372e+01  1.00367e+01  7.18182e+00
      Fe  1.14663e+01  8.60754e+00  5.75281e+00
      Fe  1.28920e+01  1.00366e+01  7.18183e+00
      Fe  4.67193e-02  1.14650e+01  5.75348e+00
      Fe  1.47382e+00  1.28914e+01  7.18185e+00
      Fe  2.90093e+00  1.14651e+01  5.75342e+00
      Fe  4.32818e+00  1.28914e+01  7.18187e+00
      Fe  5.75529e+00  1.14651e+01  5.75342e+00
      Fe  7.18213e+00  1.28918e+01  7.18186e+00
      Fe  8.60825e+00  1.14658e+01  5.75280e+00
      Fe  1.00372e+01  1.28916e+01  7.18191e+00
      Fe  1.14662e+01  1.14658e+01  5.75284e+00
      Fe  1.28924e+01  1.28919e+01  7.18186e+00
      Fe  4.68462e-02  4.62448e-02  8.60992e+00
      Fe  1.47212e+00  1.47156e+00  1.00361e+01
      Fe  2.90097e+00  4.60864e-02  8.60957e+00
      Fe  4.32989e+00  1.47139e+00  1.00362e+01
      Fe  5.75519e+00  4.62149e-02  8.60988e+00
      Fe  7.17949e+00  1.47324e+00  1.00396e+01
      Fe  8.60881e+00  4.62221e-02  8.61021e+00
      Fe  1.00372e+01  1.47320e+00  1.00366e+01
      Fe  1.14659e+01  4.61755e-02  8.61023e+00
      Fe  1.28951e+01  1.47333e+00  1.00395e+01
      Fe  4.67061e-02  2.90038e+00  8.60954e+00
      Fe  1.47210e+00  4.32934e+00  1.00360e+01
      Fe  2.90100e+00  2.90032e+00  8.60630e+00
      Fe  4.32988e+00  4.32930e+00  1.00360e+01
      Fe  5.75526e+00  2.90036e+00  8.60956e+00
      Fe  7.17948e+00  4.32738e+00  1.00395e+01
      Fe  8.60881e+00  2.90029e+00  8.61028e+00
      Fe  1.00372e+01  4.32746e+00  1.00366e+01
      Fe  1.14658e+01  2.90029e+00  8.61022e+00
      Fe  1.28949e+01  4.32749e+00  1.00395e+01
      Fe  4.68101e-02  5.75458e+00  8.60988e+00
      Fe  1.47390e+00  7.17898e+00  1.00394e+01
      Fe  2.90102e+00  5.75473e+00  8.60946e+00
      Fe  4.32800e+00  7.17903e+00  1.00394e+01
      Fe  5.75517e+00  5.75455e+00  8.60991e+00
      Fe  7.17688e+00  7.17623e+00  1.00421e+01
      Fe  8.60876e+00  5.75450e+00  8.61026e+00
      Fe  1.00372e+01  7.18145e+00  1.00370e+01
      Fe  1.14657e+01  5.75452e+00  8.61028e+00
      Fe  1.28975e+01  7.17630e+00  1.00421e+01
      Fe  4.67063e-02  8.60822e+00  8.61020e+00
      Fe  1.47377e+00  1.00367e+01  1.00365e+01
      Fe  2.90103e+00  8.60820e+00  8.61017e+00
      Fe  4.32819e+00  1.00367e+01  1.00366e+01
      Fe  5.75526e+00  8.60825e+00  8.61022e+00
      Fe  7.18212e+00  1.00366e+01  1.00370e+01
      Fe  8.60820e+00  8.60759e+00  8.61083e+00
      Fe  1.00373e+01  1.00367e+01  1.00365e+01
      Fe  1.14663e+01  8.60761e+00  8.61087e+00
      Fe  1.28924e+01  1.00366e+01  1.00369e+01
      Fe  4.67627e-02  1.14651e+01  8.61025e+00
      Fe  1.47391e+00  1.28944e+01  1.00395e+01
      Fe  2.90097e+00  1.14651e+01  8.61030e+00
      Fe  4.32804e+00  1.28944e+01  1.00395e+01
      Fe  5.75524e+00  1.14651e+01  8.61025e+00
      Fe  7.17696e+00  1.28970e+01  1.00421e+01
      Fe  8.60825e+00  1.14657e+01  8.61083e+00
      Fe  1.00373e+01  1.28919e+01  1.00369e+01
      Fe  1.14663e+01  1.14658e+01  8.61088e+00
      Fe  1.28977e+01  1.28971e+01  1.00422e+01
      Fe  6.25424e-02  6.18395e-02  1.14796e+01
      Fe  1.51550e+00  1.51479e+00  1.29326e+01
      Fe  2.90107e+00  5.22709e-02  1.14702e+01
      Fe  4.28663e+00  1.51467e+00  1.29326e+01
      Fe  5.73955e+00  6.16756e-02  1.14795e+01
      Fe  7.18300e+00  1.47138e+00  1.28892e+01
      Fe  8.60918e+00  4.60620e-02  1.14639e+01
      Fe  1.00373e+01  1.47253e+00  1.28903e+01
      Fe  1.14654e+01  4.62142e-02  1.14638e+01
      Fe  1.28915e+01  1.47142e+00  1.28892e+01
      Fe  5.29696e-02  2.90050e+00  1.14701e+01
      Fe  1.51527e+00  4.28621e+00  1.29324e+01
      Fe  2.90098e+00  2.90049e+00  1.14252e+01
      Fe  4.28658e+00  4.28599e+00  1.29326e+01
      Fe  5.74897e+00  2.90037e+00  1.14701e+01
      Fe  7.18301e+00  4.32935e+00  1.28893e+01
      Fe  8.60950e+00  2.90030e+00  1.14638e+01
      Fe  1.00373e+01  4.32820e+00  1.28903e+01
      Fe  1.14650e+01  2.90039e+00  1.14637e+01
      Fe  1.28915e+01  4.32937e+00  1.28892e+01
      Fe  6.23229e-02  5.73903e+00  1.14794e+01
      Fe  1.47198e+00  7.18257e+00  1.28891e+01
      Fe  2.90101e+00  5.74848e+00  1.14701e+01
      Fe  4.32992e+00  7.18252e+00  1.28891e+01
      Fe  5.73954e+00  5.73890e+00  1.14795e+01
      Fe  7.17959e+00  7.17895e+00  1.28911e+01
      Fe  8.60924e+00  5.75450e+00  1.14639e+01
      Fe  1.00372e+01  7.18195e+00  1.28909e+01
      Fe  1.14652e+01  5.75461e+00  1.14639e+01
      Fe  1.28949e+01  7.17903e+00  1.28910e+01
      Fe  4.66881e-02  8.60866e+00  1.14637e+01
      Fe  1.47315e+00  1.00367e+01  1.28902e+01
      Fe  2.90098e+00  8.60900e+00  1.14637e+01
      Fe  4.32886e+00  1.00367e+01  1.28902e+01
      Fe  5.75521e+00  8.60854e+00  1.14639e+01
      Fe  7.18256e+00  1.00366e+01  1.28909e+01
      Fe  8.60881e+00  8.60817e+00  1.14638e+01
      Fe  1.00373e+01  1.00366e+01  1.28910e+01
      Fe  1.14656e+01  8.60823e+00  1.14638e+01
      Fe  1.28920e+01  1.00366e+01  1.28909e+01
      Fe  4.67815e-02  1.14647e+01  1.14639e+01
      Fe  1.47212e+00  1.28908e+01  1.28892e+01
      Fe  2.90102e+00  1.14644e+01  1.14637e+01
      Fe  4.32995e+00  1.28908e+01  1.28892e+01
      Fe  5.75518e+00  1.14647e+01  1.14638e+01
      Fe  7.17960e+00  1.28942e+01  1.28910e+01
      Fe  8.60896e+00  1.14650e+01  1.14638e+01
      Fe  1.00373e+01  1.28914e+01  1.28908e+01
      Fe  1.14657e+01  1.14651e+01  1.14638e+01
      Fe  1.28950e+01  1.28944e+01  1.28910e+01
