1440
Atoms. Timestep: 2
Ni 25.9041 2.49262 0
Ni 0.719558 1.24631 2.03522
Ni 0.719558 3.73893 2.03522
Ni 25.9041 24.9262 0
Ni 2.15868 1.24631 0
Ni 25.9041 7.47786 24.4226
Ni 0.719558 6.23155 2.03522
Ni 0.719558 8.72417 2.03522
Ni 25.9041 4.98524 0
Ni 2.15868 3.73893 0
Ni 2.15868 6.23155 0
Ni 25.9041 12.4631 0
Ni 0.719558 11.2168 2.03522
Ni 0.719558 13.7094 2.03522
Ni 25.9041 9.97048 0
Ni 2.15868 8.72417 0
Ni 2.15868 11.2168 0
Ni 25.9041 17.4483 24.4226
Ni 0.719558 16.202 2.03522
Ni 0.719558 18.6947 2.03522
Ni 25.9041 14.9557 0
Ni 2.15868 13.7094 0
Ni 2.15868 16.202 0
Ni 25.9041 22.4336 0
Ni 0.719558 21.1873 2.03522
Ni 0.719558 23.6799 2.03522
Ni 25.9041 19.941 24.4226
Ni 2.15868 18.6947 24.4226
Ni 2.15868 21.1873 0
Ni 2.15868 23.6799 0
Ni 25.9041 2.49262 6.10566
Ni 0.719558 1.24631 8.14087
Ni 0.719558 3.73893 8.14087
Ni 25.9041 24.9262 6.10566
Ni 1.43912 24.9262 4.07044
Ni 2.15868 1.24631 6.10566
Ni 25.9041 7.47786 6.10566
Ni 0.719558 6.23155 8.14087
Ni 0.719558 8.72417 8.14087
Ni 25.9041 4.98524 6.10566
Ni 1.43912 4.98524 4.07044
Ni 2.15868 3.73893 6.10566
Ni 2.15868 6.23155 6.10566
Ni 1.43912 2.49262 4.07044
Ni 2.87823 2.49262 2.03522
Ni 3.59779 1.24631 4.07044
Ni 3.59779 3.73893 4.07044
Ni 2.87823 24.9262 2.03522
Ni 4.31735 24.9262 24.4226
Ni 5.03691 1.24631 2.03522
Ni 25.9041 12.4631 6.10566
Ni 0.719558 11.2168 8.14087
Ni 0.719558 13.7094 8.14087
Ni 25.9041 9.97048 6.10566
Ni 1.43912 9.97048 4.07044
Ni 2.15868 8.72417 6.10566
Ni 2.15868 11.2168 6.10566
Ni 1.43912 7.47786 4.07044
Ni 2.87823 7.47786 2.03522
Ni 3.59779 6.23155 4.07044
Ni 3.59779 8.72417 4.07044
Ni 2.87823 4.98524 2.03522
Ni 4.31735 4.98524 24.4226
Ni 5.03691 3.73893 2.03522
Ni 5.03691 6.23155 2.03522
Ni 4.31735 2.49262 24.4226
Ni 6.47603 1.24631 24.4226
Ni 6.47603 3.73893 24.4226
Ni 25.9041 17.4483 6.10566
Ni 0.719558 16.202 8.14087
Ni 0.719558 18.6947 8.14087
Ni 25.9041 14.9557 6.10566
Ni 1.43912 14.9557 4.07044
Ni 2.15868 13.7094 6.10566
Ni 2.15868 16.202 6.10566
Ni 1.43912 12.4631 4.07044
Ni 2.87823 12.4631 2.03522
Ni 3.59779 11.2168 4.07044
Ni 3.59779 13.7094 4.07044
Ni 2.87823 9.97048 2.03522
Ni 4.31735 9.97048 24.4226
Ni 5.03691 8.72417 2.03522
Ni 5.03691 11.2168 2.03522
Ni 4.31735 7.47786 24.4226
Ni 6.47603 6.23155 24.4226
Ni 6.47603 8.72417 24.4226
Ni 25.9041 22.4336 6.10566
Ni 0.719558 21.1873 8.14087
Ni 0.719558 23.6799 8.14087
Ni 25.9041 19.941 6.10566
Ni 1.43912 19.941 4.07044
Ni 2.15868 18.6947 6.10566
Ni 2.15868 21.1873 6.10566
Ni 1.43912 17.4483 4.07044
Ni 2.87823 17.4483 2.03522
Ni 3.59779 16.202 4.07044
Ni 3.59779 18.6947 4.07044
Ni 2.87823 14.9557 2.03522
Ni 4.31735 14.9557 24.4226
Ni 5.03691 13.7094 2.03522
Ni 5.03691 16.202 2.03522
Ni 4.31735 12.4631 24.4226
Ni 6.47603 11.2168 24.4226
Ni 6.47603 13.7094 24.4226
Ni 2.15868 23.6799 6.10566
Ni 1.43912 22.4336 4.07044
Ni 2.87823 22.4336 2.03522
Ni 3.59779 21.1873 4.07044
Ni 3.59779 23.6799 4.07044
Ni 2.87823 19.941 2.03522
Ni 4.31735 19.941 24.4226
Ni 5.03691 18.6947 2.03522
Ni 5.03691 21.1873 2.03522
Ni 4.31735 17.4483 24.4226
Ni 6.47603 16.202 24.4226
Ni 6.47603 18.6947 24.4226
Ni 5.03691 23.6799 2.03522
Ni 4.31735 22.4336 0
Ni 6.47603 21.1873 24.4226
Ni 6.47603 23.6799 24.4226
Ni 25.9041 2.49262 12.2113
Ni 25.9041 24.9262 12.2113
Ni 1.43912 24.9262 10.1761
Ni 2.15868 1.24631 12.2113
Ni 25.9041 7.47786 12.2113
Ni 25.9041 4.98524 12.2113
Ni 1.43912 4.98524 10.1761
Ni 2.15868 3.73893 12.2113
Ni 2.15868 6.23155 12.2113
Ni 1.43912 2.49262 10.1761
Ni 2.87823 2.49262 8.14087
Ni 3.59779 1.24631 10.1761
Ni 3.59779 3.73893 10.1761
Ni 2.87823 24.9262 8.14087
Ni 4.31735 24.9262 6.10566
Ni 5.03691 1.24631 8.14087
Ni 25.9041 12.4631 12.2113
Ni 25.9041 9.97048 12.2113
Ni 1.43912 9.97048 10.1761
Ni 2.15868 8.72417 12.2113
Ni 2.15868 11.2168 12.2113
Ni 1.43912 7.47786 10.1761
Ni 2.87823 7.47786 8.14087
Ni 3.59779 6.23155 10.1761
Ni 3.59779 8.72417 10.1761
Ni 2.87823 4.98524 8.14087
Ni 4.31735 4.98524 6.10566
Ni 5.03691 3.73893 8.14087
Ni 5.03691 6.23155 8.14087
Ni 4.31735 2.49262 6.10566
Ni 5.75647 2.49262 4.07044
Ni 6.47603 1.24631 6.10566
Ni 6.47603 3.73893 6.10566
Ni 5.75647 24.9262 4.07044
Ni 7.19558 24.9262 2.03522
Ni 7.91514 1.24631 4.07044
Ni 25.9041 17.4483 12.2113
Ni 25.9041 14.9557 12.2113
Ni 1.43912 14.9557 10.1761
Ni 2.15868 13.7094 12.2113
Ni 2.15868 16.202 12.2113
Ni 1.43912 12.4631 10.1761
Ni 2.87823 12.4631 8.14087
Ni 3.59779 11.2168 10.1761
Ni 3.59779 13.7094 10.1761
Ni 2.87823 9.97048 8.14087
Ni 4.31735 9.97048 6.10566
Ni 5.03691 8.72417 8.14087
Ni 5.03691 11.2168 8.14087
Ni 4.31735 7.47786 6.10566
Ni 5.75647 7.47786 4.07044
Ni 6.47603 6.23155 6.10566
Ni 6.47603 8.72417 6.10566
Ni 5.75647 4.98524 4.07044
Ni 7.19558 4.98524 2.03522
Ni 7.91514 3.73893 4.07044
Ni 7.91514 6.23155 4.07044
Ni 7.19558 2.49262 2.03522
Ni 8.6347 2.49262 24.4226
Ni 9.35426 1.24631 2.03522
Ni 9.35426 3.73893 2.03522
Ni 8.6347 24.9262 24.4226
Ni 10.7934 1.24631 24.4226
Ni 25.9041 22.4336 12.2113
Ni 25.9041 19.941 12.2113
Ni 1.43912 19.941 10.1761
Ni 2.15868 18.6947 12.2113
Ni 2.15868 21.1873 12.2113
Ni 1.43912 17.4483 10.1761
Ni 2.87823 17.4483 8.14087
Ni 3.59779 16.202 10.1761
Ni 3.59779 18.6947 10.1761
Ni 2.87823 14.9557 8.14087
Ni 4.31735 14.9557 6.10566
Ni 5.03691 13.7094 8.14087
Ni 5.03691 16.202 8.14087
Ni 4.31735 12.4631 6.10566
Ni 5.75647 12.4631 4.07044
Ni 6.47603 11.2168 6.10566
Ni 6.47603 13.7094 6.10566
Ni 5.75647 9.97048 4.07044
Ni 7.19558 9.97048 2.03522
Ni 7.91514 8.72417 4.07044
Ni 7.91514 11.2168 4.07044
Ni 7.19558 7.47786 2.03522
Ni 8.6347 7.47786 24.4226
Ni 9.35426 6.23155 2.03522
Ni 9.35426 8.72417 2.03522
Ni 8.6347 4.98524 24.4226
Ni 10.7934 3.73893 24.4226
Ni 10.7934 6.23155 0
Ni 2.15868 23.6799 12.2113
Ni 1.43912 22.4336 10.1761
Ni 2.87823 22.4336 8.14087
Ni 3.59779 21.1873 10.1761
Ni 3.59779 23.6799 10.1761
Ni 2.87823 19.941 8.14087
Ni 4.31735 19.941 6.10566
Ni 5.03691 18.6947 8.14087
Ni 5.03691 21.1873 8.14087
Ni 4.31735 17.4483 6.10566
Ni 5.75647 17.4483 4.07044
Ni 6.47603 16.202 6.10566
Ni 6.47603 18.6947 6.10566
Ni 5.75647 14.9557 4.07044
Ni 7.19558 14.9557 2.03522
Ni 7.91514 13.7094 4.07044
Ni 7.91514 16.202 4.07044
Ni 7.19558 12.4631 2.03522
Ni 8.6347 12.4631 24.4226
Ni 9.35426 11.2168 2.03522
Ni 9.35426 13.7094 2.03522
Ni 8.6347 9.97048 24.4226
Ni 10.7934 8.72417 24.4226
Ni 10.7934 11.2168 24.4226
Ni 5.03691 23.6799 8.14087
Ni 4.31735 22.4336 6.10566
Ni 5.75647 22.4336 4.07044
Ni 6.47603 21.1873 6.10566
Ni 6.47603 23.6799 6.10566
Ni 5.75647 19.941 4.07044
Ni 7.19558 19.941 2.03522
Ni 7.91514 18.6947 4.07044
Ni 7.91514 21.1873 4.07044
Ni 7.19558 17.4483 2.03522
Ni 8.6347 17.4483 0
Ni 9.35426 16.202 2.03522
Ni 9.35426 18.6947 2.03522
Ni 8.6347 14.9557 24.4226
Ni 10.7934 13.7094 24.4226
Ni 10.7934 16.202 24.4226
Ni 7.91514 23.6799 4.07044
Ni 7.19558 22.4336 2.03522
Ni 8.6347 22.4336 24.4226
Ni 9.35426 21.1873 2.03522
Ni 9.35426 23.6799 2.03522
Ni 8.6347 19.941 24.4226
Ni 10.7934 18.6947 24.4226
Ni 10.7934 21.1873 24.4226
Ni 10.7934 23.6799 24.4226
Ni 4.31735 24.9262 12.2113
Ni 4.31735 4.98524 12.2113
Ni 4.31735 2.49262 12.2113
Ni 5.75647 2.49262 10.1761
Ni 6.47603 1.24631 12.2113
Ni 6.47603 3.73893 12.2113
Ni 5.75647 24.9262 10.1761
Ni 7.19558 24.9262 8.14087
Ni 7.91514 1.24631 10.1761
Ni 4.31735 9.97048 12.2113
Ni 4.31735 7.47786 12.2113
Ni 5.75647 7.47786 10.1761
Ni 6.47603 6.23155 12.2113
Ni 6.47603 8.72417 12.2113
Ni 5.75647 4.98524 10.1761
Ni 7.19558 4.98524 8.14087
Ni 7.91514 3.73893 10.1761
Ni 7.91514 6.23155 10.1761
Ni 7.19558 2.49262 8.14087
Ni 8.6347 2.49262 6.10566
Ni 9.35426 1.24631 8.14087
Ni 9.35426 3.73893 8.14087
Ni 8.6347 24.9262 6.10566
Ni 10.0738 24.9262 4.07044
Ni 10.7934 1.24631 6.10566
Ni 4.31735 14.9557 12.2113
Ni 4.31735 12.4631 12.2113
Ni 5.75647 12.4631 10.1761
Ni 6.47603 11.2168 12.2113
Ni 6.47603 13.7094 12.2113
Ni 5.75647 9.97048 10.1761
Ni 7.19558 9.97048 8.14087
Ni 7.91514 8.72417 10.1761
Ni 7.91514 11.2168 10.1761
Ni 7.19558 7.47786 8.14087
Ni 8.6347 7.47786 6.10566
Ni 9.35426 6.23155 8.14087
Ni 9.35426 8.72417 8.14087
Ni 8.6347 4.98524 6.10566
Ni 10.0738 4.98524 4.07044
Ni 10.7934 3.73893 6.10566
Ni 10.7934 6.23155 6.10566
Ni 10.0738 2.49262 4.07044
Ni 11.5129 2.49262 2.03522
Ni 12.2325 1.24631 4.07044
Ni 12.2325 3.73893 4.07044
Ni 11.5129 24.9262 2.03522
Ni 12.9521 24.9262 24.4226
Ni 13.6716 1.24631 2.03522
Ni 4.31735 19.941 12.2113
Ni 4.31735 17.4483 12.2113
Ni 5.75647 17.4483 10.1761
Ni 6.47603 16.202 12.2113
Ni 6.47603 18.6947 12.2113
Ni 5.75647 14.9557 10.1761
Ni 7.19558 14.9557 8.14087
Ni 7.91514 13.7094 10.1761
Ni 7.91514 16.202 10.1761
Ni 7.19558 12.4631 8.14087
Ni 8.6347 12.4631 6.10566
Ni 9.35426 11.2168 8.14087
Ni 9.35426 13.7094 8.14087
Ni 8.6347 9.97048 6.10566
Ni 10.0738 9.97048 4.07044
Ni 10.7934 8.72417 6.10566
Ni 10.7934 11.2168 6.10566
Ni 10.0738 7.47786 4.07044
Ni 11.5129 7.47786 2.03522
Ni 12.2325 6.23155 4.07044
Ni 12.2325 8.72417 4.07044
Ni 11.5129 4.98524 2.03522
Ni 12.9521 4.98524 24.4226
Ni 13.6716 3.73893 2.03522
Ni 13.6716 6.23155 2.03522
Ni 12.9521 2.49262 24.4226
Ni 15.1107 1.24631 24.4226
Ni 15.1107 3.73893 24.4226
Ni 4.31735 22.4336 12.2113
Ni 5.75647 22.4336 10.1761
Ni 6.47603 21.1873 12.2113
Ni 6.47603 23.6799 12.2113
Ni 5.75647 19.941 10.1761
Ni 7.19558 19.941 8.14087
Ni 7.91514 18.6947 10.1761
Ni 7.91514 21.1873 10.1761
Ni 7.19558 17.4483 8.14087
Ni 8.6347 17.4483 6.10566
Ni 9.35426 16.202 8.14087
Ni 9.35426 18.6947 8.14087
Ni 8.6347 14.9557 6.10566
Ni 10.0738 14.9557 4.07044
Ni 10.7934 13.7094 6.10566
Ni 10.7934 16.202 6.10566
Ni 10.0738 12.4631 4.07044
Ni 11.5129 12.4631 2.03522
Ni 12.2325 11.2168 4.07044
Ni 12.2325 13.7094 4.07044
Ni 11.5129 9.97048 2.03522
Ni 12.9521 9.97048 24.4226
Ni 13.6716 8.72417 2.03522
Ni 13.6716 11.2168 2.03522
Ni 12.9521 7.47786 24.4226
Ni 15.1107 6.23155 24.4226
Ni 15.1107 8.72417 24.4226
Ni 7.91514 23.6799 10.1761
Ni 7.19558 22.4336 8.14087
Ni 8.6347 22.4336 6.10566
Ni 9.35426 21.1873 8.14087
Ni 9.35426 23.6799 8.14087
Ni 8.6347 19.941 6.10566
Ni 10.0738 19.941 4.07044
Ni 10.7934 18.6947 6.10566
Ni 10.7934 21.1873 6.10566
Ni 10.0738 17.4483 4.07044
Ni 11.5129 17.4483 2.03522
Ni 12.2325 16.202 4.07044
Ni 12.2325 18.6947 4.07044
Ni 11.5129 14.9557 2.03522
Ni 12.9521 14.9557 24.4226
Ni 13.6716 13.7094 2.03522
Ni 13.6716 16.202 2.03522
Ni 12.9521 12.4631 0
Ni 15.1107 11.2168 24.4226
Ni 15.1107 13.7094 24.4226
Ni 10.7934 23.6799 6.10566
Ni 10.0738 22.4336 4.07044
Ni 11.5129 22.4336 2.03522
Ni 12.2325 21.1873 4.07044
Ni 12.2325 23.6799 4.07044
Ni 11.5129 19.941 2.03522
Ni 12.9521 19.941 24.4226
Ni 13.6716 18.6947 2.03522
Ni 13.6716 21.1873 2.03522
Ni 12.9521 17.4483 0
Ni 15.1107 16.202 24.4226
Ni 15.1107 18.6947 24.4226
Ni 13.6716 23.6799 2.03522
Ni 12.9521 22.4336 24.4226
Ni 15.1107 21.1873 24.4226
Ni 15.1107 23.6799 24.4226
Ni 8.6347 2.49262 12.2113
Ni 8.6347 24.9262 12.2113
Ni 10.0738 24.9262 10.1761
Ni 10.7934 1.24631 12.2113
Ni 8.6347 7.47786 12.2113
Ni 8.6347 4.98524 12.2113
Ni 10.0738 4.98524 10.1761
Ni 10.7934 3.73893 12.2113
Ni 10.7934 6.23155 12.2113
Ni 10.0738 2.49262 10.1761
Ni 11.5129 2.49262 8.14087
Ni 12.2325 1.24631 10.1761
Ni 12.2325 3.73893 10.1761
Ni 11.5129 24.9262 8.14087
Ni 12.9521 24.9262 6.10566
Ni 13.6716 1.24631 8.14087
Ni 8.6347 12.4631 12.2113
Ni 8.6347 9.97048 12.2113
Ni 10.0738 9.97048 10.1761
Ni 10.7934 8.72417 12.2113
Ni 10.7934 11.2168 12.2113
Ni 10.0738 7.47786 10.1761
Ni 11.5129 7.47786 8.14087
Ni 12.2325 6.23155 10.1761
Ni 12.2325 8.72417 10.1761
Ni 11.5129 4.98524 8.14087
Ni 12.9521 4.98524 6.10566
Ni 13.6716 3.73893 8.14087
Ni 13.6716 6.23155 8.14087
Ni 12.9521 2.49262 6.10566
Ni 14.3912 2.49262 4.07044
Ni 15.1107 1.24631 6.10566
Ni 15.1107 3.73893 6.10566
Ni 14.3912 24.9262 4.07044
Ni 15.8303 24.9262 2.03522
Ni 16.5498 1.24631 4.07044
Ni 8.6347 17.4483 12.2113
Ni 8.6347 14.9557 12.2113
Ni 10.0738 14.9557 10.1761
Ni 10.7934 13.7094 12.2113
Ni 10.7934 16.202 12.2113
Ni 10.0738 12.4631 10.1761
Ni 11.5129 12.4631 8.14087
Ni 12.2325 11.2168 10.1761
Ni 12.2325 13.7094 10.1761
Ni 11.5129 9.97048 8.14087
Ni 12.9521 9.97048 6.10566
Ni 13.6716 8.72417 8.14087
Ni 13.6716 11.2168 8.14087
Ni 12.9521 7.47786 6.10566
Ni 14.3912 7.47786 4.07044
Ni 15.1107 6.23155 6.10566
Ni 15.1107 8.72417 6.10566
Ni 14.3912 4.98524 4.07044
Ni 15.8303 4.98524 2.03522
Ni 16.5498 3.73893 4.07044
Ni 16.5498 6.23155 4.07044
Ni 15.8303 2.49262 2.03522
Ni 17.2694 2.49262 24.4226
Ni 17.989 1.24631 2.03522
Ni 17.989 3.73893 2.03522
Ni 17.2694 24.9262 24.4226
Ni 19.4281 1.24631 0
Ni 8.6347 22.4336 12.2113
Ni 8.6347 19.941 12.2113
Ni 10.0738 19.941 10.1761
Ni 10.7934 18.6947 12.2113
Ni 10.7934 21.1873 12.2113
Ni 10.0738 17.4483 10.1761
Ni 11.5129 17.4483 8.14087
Ni 12.2325 16.202 10.1761
Ni 12.2325 18.6947 10.1761
Ni 11.5129 14.9557 8.14087
Ni 12.9521 14.9557 6.10566
Ni 13.6716 13.7094 8.14087
Ni 13.6716 16.202 8.14087
Ni 12.9521 12.4631 6.10566
Ni 14.3912 12.4631 4.07044
Ni 15.1107 11.2168 6.10566
Ni 15.1107 13.7094 6.10566
Ni 14.3912 9.97048 4.07044
Ni 15.8303 9.97048 2.03522
Ni 16.5498 8.72417 4.07044
Ni 16.5498 11.2168 4.07044
Ni 15.8303 7.47786 2.03522
Ni 17.2694 7.47786 24.4226
Ni 17.989 6.23155 2.03522
Ni 17.989 8.72417 2.03522
Ni 17.2694 4.98524 24.4226
Ni 19.4281 3.73893 24.4226
Ni 19.4281 6.23155 24.4226
Ni 10.7934 23.6799 12.2113
Ni 10.0738 22.4336 10.1761
Ni 11.5129 22.4336 8.14087
Ni 12.2325 21.1873 10.1761
Ni 12.2325 23.6799 10.1761
Ni 11.5129 19.941 8.14087
Ni 12.9521 19.941 6.10566
Ni 13.6716 18.6947 8.14087
Ni 13.6716 21.1873 8.14087
Ni 12.9521 17.4483 6.10566
Ni 14.3912 17.4483 4.07044
Ni 15.1107 16.202 6.10566
Ni 15.1107 18.6947 6.10566
Ni 14.3912 14.9557 4.07044
Ni 15.8303 14.9557 2.03522
Ni 16.5498 13.7094 4.07044
Ni 16.5498 16.202 4.07044
Ni 15.8303 12.4631 2.03522
Ni 17.2694 12.4631 24.4226
Ni 17.989 11.2168 2.03522
Ni 17.989 13.7094 2.03522
Ni 17.2694 9.97048 24.4226
Ni 19.4281 8.72417 24.4226
Ni 19.4281 11.2168 24.4226
Ni 13.6716 23.6799 8.14087
Ni 12.9521 22.4336 6.10566
Ni 14.3912 22.4336 4.07044
Ni 15.1107 21.1873 6.10566
Ni 15.1107 23.6799 6.10566
Ni 14.3912 19.941 4.07044
Ni 15.8303 19.941 2.03522
Ni 16.5498 18.6947 4.07044
Ni 16.5498 21.1873 4.07044
Ni 15.8303 17.4483 2.03522
Ni 17.2694 17.4483 24.4226
Ni 17.989 16.202 2.03522
Ni 17.989 18.6947 2.03522
Ni 17.2694 14.9557 24.4226
Ni 19.4281 13.7094 0
Ni 19.4281 16.202 24.4226
Ni 16.5498 23.6799 4.07044
Ni 15.8303 22.4336 2.03522
Ni 17.2694 22.4336 24.4226
Ni 17.989 21.1873 2.03522
Ni 17.989 23.6799 2.03522
Ni 17.2694 19.941 24.4226
Ni 19.4281 18.6947 0
Ni 19.4281 21.1873 0
Ni 19.4281 23.6799 24.4226
Ni 12.9521 24.9262 12.2113
Ni 12.9521 4.98524 12.2113
Ni 12.9521 2.49262 12.2113
Ni 14.3912 2.49262 10.1761
Ni 15.1107 1.24631 12.2113
Ni 15.1107 3.73893 12.2113
Ni 14.3912 24.9262 10.1761
Ni 15.8303 24.9262 8.14087
Ni 16.5498 1.24631 10.1761
Ni 12.9521 9.97048 12.2113
Ni 12.9521 7.47786 12.2113
Ni 14.3912 7.47786 10.1761
Ni 15.1107 6.23155 12.2113
Ni 15.1107 8.72417 12.2113
Ni 14.3912 4.98524 10.1761
Ni 15.8303 4.98524 8.14087
Ni 16.5498 3.73893 10.1761
Ni 16.5498 6.23155 10.1761
Ni 15.8303 2.49262 8.14087
Ni 17.2694 2.49262 6.10566
Ni 17.989 1.24631 8.14087
Ni 17.989 3.73893 8.14087
Ni 17.2694 24.9262 6.10566
Ni 18.7085 24.9262 4.07044
Ni 19.4281 1.24631 6.10566
Ni 12.9521 14.9557 12.2113
Ni 12.9521 12.4631 12.2113
Ni 14.3912 12.4631 10.1761
Ni 15.1107 11.2168 12.2113
Ni 15.1107 13.7094 12.2113
Ni 14.3912 9.97048 10.1761
Ni 15.8303 9.97048 8.14087
Ni 16.5498 8.72417 10.1761
Ni 16.5498 11.2168 10.1761
Ni 15.8303 7.47786 8.14087
Ni 17.2694 7.47786 6.10566
Ni 17.989 6.23155 8.14087
Ni 17.989 8.72417 8.14087
Ni 17.2694 4.98524 6.10566
Ni 18.7085 4.98524 4.07044
Ni 19.4281 3.73893 6.10566
Ni 19.4281 6.23155 6.10566
Ni 18.7085 2.49262 4.07044
Ni 20.1476 2.49262 2.03522
Ni 20.8672 1.24631 4.07044
Ni 20.8672 3.73893 4.07044
Ni 20.1476 24.9262 2.03522
Ni 21.5868 24.9262 24.4226
Ni 22.3063 1.24631 2.03522
Ni 12.9521 19.941 12.2113
Ni 12.9521 17.4483 12.2113
Ni 14.3912 17.4483 10.1761
Ni 15.1107 16.202 12.2113
Ni 15.1107 18.6947 12.2113
Ni 14.3912 14.9557 10.1761
Ni 15.8303 14.9557 8.14087
Ni 16.5498 13.7094 10.1761
Ni 16.5498 16.202 10.1761
Ni 15.8303 12.4631 8.14087
Ni 17.2694 12.4631 6.10566
Ni 17.989 11.2168 8.14087
Ni 17.989 13.7094 8.14087
Ni 17.2694 9.97048 6.10566
Ni 18.7085 9.97048 4.07044
Ni 19.4281 8.72417 6.10566
Ni 19.4281 11.2168 6.10566
Ni 18.7085 7.47786 4.07044
Ni 20.1476 7.47786 2.03522
Ni 20.8672 6.23155 4.07044
Ni 20.8672 8.72417 4.07044
Ni 20.1476 4.98524 2.03522
Ni 21.5868 4.98524 0
Ni 22.3063 3.73893 2.03522
Ni 22.3063 6.23155 2.03522
Ni 21.5868 2.49262 24.4226
Ni 23.7454 1.24631 24.4226
Ni 23.7454 3.73893 24.4226
Ni 12.9521 22.4336 12.2113
Ni 14.3912 22.4336 10.1761
Ni 15.1107 21.1873 12.2113
Ni 15.1107 23.6799 12.2113
Ni 14.3912 19.941 10.1761
Ni 15.8303 19.941 8.14087
Ni 16.5498 18.6947 10.1761
Ni 16.5498 21.1873 10.1761
Ni 15.8303 17.4483 8.14087
Ni 17.2694 17.4483 6.10566
Ni 17.989 16.202 8.14087
Ni 17.989 18.6947 8.14087
Ni 17.2694 14.9557 6.10566
Ni 18.7085 14.9557 4.07044
Ni 19.4281 13.7094 6.10566
Ni 19.4281 16.202 6.10566
Ni 18.7085 12.4631 4.07044
Ni 20.1476 12.4631 2.03522
Ni 20.8672 11.2168 4.07044
Ni 20.8672 13.7094 4.07044
Ni 20.1476 9.97048 2.03522
Ni 21.5868 9.97048 0
Ni 22.3063 8.72417 2.03522
Ni 22.3063 11.2168 2.03522
Ni 21.5868 7.47786 0
Ni 23.7454 6.23155 24.4226
Ni 23.7454 8.72417 24.4226
Ni 16.5498 23.6799 10.1761
Ni 15.8303 22.4336 8.14087
Ni 17.2694 22.4336 6.10566
Ni 17.989 21.1873 8.14087
Ni 17.989 23.6799 8.14087
Ni 17.2694 19.941 6.10566
Ni 18.7085 19.941 4.07044
Ni 19.4281 18.6947 6.10566
Ni 19.4281 21.1873 6.10566
Ni 18.7085 17.4483 4.07044
Ni 20.1476 17.4483 2.03522
Ni 20.8672 16.202 4.07044
Ni 20.8672 18.6947 4.07044
Ni 20.1476 14.9557 2.03522
Ni 21.5868 14.9557 24.4226
Ni 22.3063 13.7094 2.03522
Ni 22.3063 16.202 2.03522
Ni 21.5868 12.4631 0
Ni 23.7454 11.2168 24.4226
Ni 23.7454 13.7094 24.4226
Ni 19.4281 23.6799 6.10566
Ni 18.7085 22.4336 4.07044
Ni 20.1476 22.4336 2.03522
Ni 20.8672 21.1873 4.07044
Ni 20.8672 23.6799 4.07044
Ni 20.1476 19.941 2.03522
Ni 21.5868 19.941 24.4226
Ni 22.3063 18.6947 2.03522
Ni 22.3063 21.1873 2.03522
Ni 21.5868 17.4483 24.4226
Ni 23.7454 16.202 24.4226
Ni 23.7454 18.6947 24.4226
Ni 22.3063 23.6799 2.03522
Ni 21.5868 22.4336 24.4226
Ni 23.7454 21.1873 24.4226
Ni 23.7454 23.6799 24.4226
Ni 17.2694 2.49262 12.2113
Ni 17.2694 24.9262 12.2113
Ni 18.7085 24.9262 10.1761
Ni 19.4281 1.24631 12.2113
Ni 17.2694 7.47786 12.2113
Ni 17.2694 4.98524 12.2113
Ni 18.7085 4.98524 10.1761
Ni 19.4281 3.73893 12.2113
Ni 19.4281 6.23155 12.2113
Ni 18.7085 2.49262 10.1761
Ni 20.1476 2.49262 8.14087
Ni 20.8672 1.24631 10.1761
Ni 20.8672 3.73893 10.1761
Ni 20.1476 24.9262 8.14087
Ni 21.5868 24.9262 6.10566
Ni 22.3063 1.24631 8.14087
Ni 17.2694 12.4631 12.2113
Ni 17.2694 9.97048 12.2113
Ni 18.7085 9.97048 10.1761
Ni 19.4281 8.72417 12.2113
Ni 19.4281 11.2168 12.2113
Ni 18.7085 7.47786 10.1761
Ni 20.1476 7.47786 8.14087
Ni 20.8672 6.23155 10.1761
Ni 20.8672 8.72417 10.1761
Ni 20.1476 4.98524 8.14087
Ni 21.5868 4.98524 6.10566
Ni 22.3063 3.73893 8.14087
Ni 22.3063 6.23155 8.14087
Ni 21.5868 2.49262 6.10566
Ni 23.0259 2.49262 4.07044
Ni 23.7454 1.24631 6.10566
Ni 23.7454 3.73893 6.10566
Ni 23.0259 24.9262 4.07044
Ni 24.465 24.9262 2.03522
Ni 25.1845 1.24631 4.07044
Ni 17.2694 17.4483 12.2113
Ni 17.2694 14.9557 12.2113
Ni 18.7085 14.9557 10.1761
Ni 19.4281 13.7094 12.2113
Ni 19.4281 16.202 12.2113
Ni 18.7085 12.4631 10.1761
Ni 20.1476 12.4631 8.14087
Ni 20.8672 11.2168 10.1761
Ni 20.8672 13.7094 10.1761
Ni 20.1476 9.97048 8.14087
Ni 21.5868 9.97048 6.10566
Ni 22.3063 8.72417 8.14087
Ni 22.3063 11.2168 8.14087
Ni 21.5868 7.47786 6.10566
Ni 23.0259 7.47786 4.07044
Ni 23.7454 6.23155 6.10566
Ni 23.7454 8.72417 6.10566
Ni 23.0259 4.98524 4.07044
Ni 24.465 4.98524 2.03522
Ni 25.1845 3.73893 4.07044
Ni 25.1845 6.23155 4.07044
Ni 24.465 2.49262 2.03522
Ni 17.2694 22.4336 12.2113
Ni 17.2694 19.941 12.2113
Ni 18.7085 19.941 10.1761
Ni 19.4281 18.6947 12.2113
Ni 19.4281 21.1873 12.2113
Ni 18.7085 17.4483 10.1761
Ni 20.1476 17.4483 8.14087
Ni 20.8672 16.202 10.1761
Ni 20.8672 18.6947 10.1761
Ni 20.1476 14.9557 8.14087
Ni 21.5868 14.9557 6.10566
Ni 22.3063 13.7094 8.14087
Ni 22.3063 16.202 8.14087
Ni 21.5868 12.4631 6.10566
Ni 23.0259 12.4631 4.07044
Ni 23.7454 11.2168 6.10566
Ni 23.7454 13.7094 6.10566
Ni 23.0259 9.97048 4.07044
Ni 24.465 9.97048 2.03522
Ni 25.1845 8.72417 4.07044
Ni 25.1845 11.2168 4.07044
Ni 24.465 7.47786 2.03522
Ni 19.4281 23.6799 12.2113
Ni 18.7085 22.4336 10.1761
Ni 20.1476 22.4336 8.14087
Ni 20.8672 21.1873 10.1761
Ni 20.8672 23.6799 10.1761
Ni 20.1476 19.941 8.14087
Ni 21.5868 19.941 6.10566
Ni 22.3063 18.6947 8.14087
Ni 22.3063 21.1873 8.14087
Ni 21.5868 17.4483 6.10566
Ni 23.0259 17.4483 4.07044
Ni 23.7454 16.202 6.10566
Ni 23.7454 18.6947 6.10566
Ni 23.0259 14.9557 4.07044
Ni 24.465 14.9557 2.03522
Ni 25.1845 13.7094 4.07044
Ni 25.1845 16.202 4.07044
Ni 24.465 12.4631 2.03522
Ni 22.3063 23.6799 8.14087
Ni 21.5868 22.4336 6.10566
Ni 23.0259 22.4336 4.07044
Ni 23.7454 21.1873 6.10566
Ni 23.7454 23.6799 6.10566
Ni 23.0259 19.941 4.07044
Ni 24.465 19.941 2.03522
Ni 25.1845 18.6947 4.07044
Ni 25.1845 21.1873 4.07044
Ni 24.465 17.4483 2.03522
Ni 25.1845 23.6799 4.07044
Ni 24.465 22.4336 2.03522
Ni 21.5868 24.9262 12.2113
Ni 21.5868 4.98524 12.2113
Ni 21.5868 2.49262 12.2113
Ni 23.0259 2.49262 10.1761
Ni 23.7454 1.24631 12.2113
Ni 23.7454 3.73893 12.2113
Ni 23.0259 24.9262 10.1761
Ni 24.465 24.9262 8.14087
Ni 25.1845 1.24631 10.1761
Ni 21.5868 9.97048 12.2113
Ni 21.5868 7.47786 12.2113
Ni 23.0259 7.47786 10.1761
Ni 23.7454 6.23155 12.2113
Ni 23.7454 8.72417 12.2113
Ni 23.0259 4.98524 10.1761
Ni 24.465 4.98524 8.14087
Ni 25.1845 3.73893 10.1761
Ni 25.1845 6.23155 10.1761
Ni 24.465 2.49262 8.14087
Ni 21.5868 14.9557 12.2113
Ni 21.5868 12.4631 12.2113
Ni 23.0259 12.4631 10.1761
Ni 23.7454 11.2168 12.2113
Ni 23.7454 13.7094 12.2113
Ni 23.0259 9.97048 10.1761
Ni 24.465 9.97048 8.14087
Ni 25.1845 8.72417 10.1761
Ni 25.1845 11.2168 10.1761
Ni 24.465 7.47786 8.14087
Ni 21.5868 19.941 12.2113
Ni 21.5868 17.4483 12.2113
Ni 23.0259 17.4483 10.1761
Ni 23.7454 16.202 12.2113
Ni 23.7454 18.6947 12.2113
Ni 23.0259 14.9557 10.1761
Ni 24.465 14.9557 8.14087
Ni 25.1845 13.7094 10.1761
Ni 25.1845 16.202 10.1761
Ni 24.465 12.4631 8.14087
Ni 21.5868 22.4336 12.2113
Ni 23.0259 22.4336 10.1761
Ni 23.7454 21.1873 12.2113
Ni 23.7454 23.6799 12.2113
Ni 23.0259 19.941 10.1761
Ni 24.465 19.941 8.14087
Ni 25.1845 18.6947 10.1761
Ni 25.1845 21.1873 10.1761
Ni 24.465 17.4483 8.14087
Ni 25.1845 23.6799 10.1761
Ni 24.465 22.4336 8.14087
Ni 0.719558 1.24631 14.2465
Ni 0.719558 3.73893 14.2465
Ni 0.719558 6.23155 14.2465
Ni 0.719558 8.72417 14.2465
Ni 0.719558 11.2168 14.2465
Ni 0.719558 13.7094 14.2465
Ni 0.719558 16.202 14.2465
Ni 0.719558 18.6947 14.2465
Ni 0.719558 21.1873 14.2465
Ni 0.719558 23.6799 14.2465
Ni 25.9041 2.49262 18.317
Ni 0.719558 1.24631 20.3522
Ni 0.719558 3.73893 20.3522
Ni 25.9041 24.9262 18.317
Ni 1.43912 24.9262 16.2817
Ni 2.15868 1.24631 18.317
Ni 25.9041 7.47786 18.317
Ni 0.719558 6.23155 20.3522
Ni 0.719558 8.72417 20.3522
Ni 25.9041 4.98524 18.317
Ni 1.43912 4.98524 16.2817
Ni 2.15868 3.73893 18.317
Ni 2.15868 6.23155 18.317
Ni 1.43912 2.49262 16.2817
Ni 2.87823 2.49262 14.2465
Ni 3.59779 1.24631 16.2817
Ni 3.59779 3.73893 16.2817
Ni 2.87823 24.9262 14.2465
Ni 5.03691 1.24631 14.2465
Ni 25.9041 12.4631 18.317
Ni 0.719558 11.2168 20.3522
Ni 0.719558 13.7094 20.3522
Ni 25.9041 9.97048 18.317
Ni 1.43912 9.97048 16.2817
Ni 2.15868 8.72417 18.317
Ni 2.15868 11.2168 18.317
Ni 1.43912 7.47786 16.2817
Ni 2.87823 7.47786 14.2465
Ni 3.59779 6.23155 16.2817
Ni 3.59779 8.72417 16.2817
Ni 2.87823 4.98524 14.2465
Ni 5.03691 3.73893 14.2465
Ni 5.03691 6.23155 14.2465
Ni 25.9041 17.4483 18.317
Ni 0.719558 16.202 20.3522
Ni 0.719558 18.6947 20.3522
Ni 25.9041 14.9557 18.317
Ni 1.43912 14.9557 16.2817
Ni 2.15868 13.7094 18.317
Ni 2.15868 16.202 18.317
Ni 1.43912 12.4631 16.2817
Ni 2.87823 12.4631 14.2465
Ni 3.59779 11.2168 16.2817
Ni 3.59779 13.7094 16.2817
Ni 2.87823 9.97048 14.2465
Ni 5.03691 8.72417 14.2465
Ni 5.03691 11.2168 14.2465
Ni 25.9041 22.4336 18.317
Ni 0.719558 21.1873 20.3522
Ni 0.719558 23.6799 20.3522
Ni 25.9041 19.941 18.317
Ni 1.43912 19.941 16.2817
Ni 2.15868 18.6947 18.317
Ni 2.15868 21.1873 18.317
Ni 1.43912 17.4483 16.2817
Ni 2.87823 17.4483 14.2465
Ni 3.59779 16.202 16.2817
Ni 3.59779 18.6947 16.2817
Ni 2.87823 14.9557 14.2465
Ni 5.03691 13.7094 14.2465
Ni 5.03691 16.202 14.2465
Ni 2.15868 23.6799 18.317
Ni 1.43912 22.4336 16.2817
Ni 2.87823 22.4336 14.2465
Ni 3.59779 21.1873 16.2817
Ni 3.59779 23.6799 16.2817
Ni 2.87823 19.941 14.2465
Ni 5.03691 18.6947 14.2465
Ni 5.03691 21.1873 14.2465
Ni 5.03691 23.6799 14.2465
Ni 1.43912 24.9262 22.3874
Ni 1.43912 4.98524 22.3874
Ni 1.43912 2.49262 22.3874
Ni 2.87823 2.49262 20.3522
Ni 3.59779 1.24631 22.3874
Ni 3.59779 3.73893 22.3874
Ni 2.87823 24.9262 20.3522
Ni 4.31735 24.9262 18.317
Ni 5.03691 1.24631 20.3522
Ni 1.43912 9.97048 22.3874
Ni 1.43912 7.47786 22.3874
Ni 2.87823 7.47786 20.3522
Ni 3.59779 6.23155 22.3874
Ni 3.59779 8.72417 22.3874
Ni 2.87823 4.98524 20.3522
Ni 4.31735 4.98524 18.317
Ni 5.03691 3.73893 20.3522
Ni 5.03691 6.23155 20.3522
Ni 4.31735 2.49262 18.317
Ni 5.75647 2.49262 16.2817
Ni 6.47603 1.24631 18.317
Ni 6.47603 3.73893 18.317
Ni 5.75647 24.9262 16.2817
Ni 7.19558 24.9262 14.2465
Ni 7.91514 1.24631 16.2817
Ni 1.43912 14.9557 22.3874
Ni 1.43912 12.4631 22.3874
Ni 2.87823 12.4631 20.3522
Ni 3.59779 11.2168 22.3874
Ni 3.59779 13.7094 22.3874
Ni 2.87823 9.97048 20.3522
Ni 4.31735 9.97048 18.317
Ni 5.03691 8.72417 20.3522
Ni 5.03691 11.2168 20.3522
Ni 4.31735 7.47786 18.317
Ni 5.75647 7.47786 16.2817
Ni 6.47603 6.23155 18.317
Ni 6.47603 8.72417 18.317
Ni 5.75647 4.98524 16.2817
Ni 7.19558 4.98524 14.2465
Ni 7.91514 3.73893 16.2817
Ni 7.91514 6.23155 16.2817
Ni 7.19558 2.49262 14.2465
Ni 9.35426 1.24631 14.2465
Ni 9.35426 3.73893 14.2465
Ni 1.43912 19.941 22.3874
Ni 1.43912 17.4483 22.3874
Ni 2.87823 17.4483 20.3522
Ni 3.59779 16.202 22.3874
Ni 3.59779 18.6947 22.3874
Ni 2.87823 14.9557 20.3522
Ni 4.31735 14.9557 18.317
Ni 5.03691 13.7094 20.3522
Ni 5.03691 16.202 20.3522
Ni 4.31735 12.4631 18.317
Ni 5.75647 12.4631 16.2817
Ni 6.47603 11.2168 18.317
Ni 6.47603 13.7094 18.317
Ni 5.75647 9.97048 16.2817
Ni 7.19558 9.97048 14.2465
Ni 7.91514 8.72417 16.2817
Ni 7.91514 11.2168 16.2817
Ni 7.19558 7.47786 14.2465
Ni 9.35426 6.23155 14.2465
Ni 9.35426 8.72417 14.2465
Ni 1.43912 22.4336 22.3874
Ni 2.87823 22.4336 20.3522
Ni 3.59779 21.1873 22.3874
Ni 3.59779 23.6799 22.3874
Ni 2.87823 19.941 20.3522
Ni 4.31735 19.941 18.317
Ni 5.03691 18.6947 20.3522
Ni 5.03691 21.1873 20.3522
Ni 4.31735 17.4483 18.317
Ni 5.75647 17.4483 16.2817
Ni 6.47603 16.202 18.317
Ni 6.47603 18.6947 18.317
Ni 5.75647 14.9557 16.2817
Ni 7.19558 14.9557 14.2465
Ni 7.91514 13.7094 16.2817
Ni 7.91514 16.202 16.2817
Ni 7.19558 12.4631 14.2465
Ni 9.35426 11.2168 14.2465
Ni 9.35426 13.7094 14.2465
Ni 5.03691 23.6799 20.3522
Ni 4.31735 22.4336 18.317
Ni 5.75647 22.4336 16.2817
Ni 6.47603 21.1873 18.317
Ni 6.47603 23.6799 18.317
Ni 5.75647 19.941 16.2817
Ni 7.19558 19.941 14.2465
Ni 7.91514 18.6947 16.2817
Ni 7.91514 21.1873 16.2817
Ni 7.19558 17.4483 14.2465
Ni 9.35426 16.202 14.2465
Ni 9.35426 18.6947 14.2465
Ni 7.91514 23.6799 16.2817
Ni 7.19558 22.4336 14.2465
Ni 9.35426 21.1873 14.2465
Ni 9.35426 23.6799 14.2465
Ni 5.75647 2.49262 22.3874
Ni 5.75647 24.9262 22.3874
Ni 7.19558 24.9262 20.3522
Ni 7.91514 1.24631 22.3874
Ni 5.75647 7.47786 22.3874
Ni 5.75647 4.98524 22.3874
Ni 7.19558 4.98524 20.3522
Ni 7.91514 3.73893 22.3874
Ni 7.91514 6.23155 22.3874
Ni 7.19558 2.49262 20.3522
Ni 8.6347 2.49262 18.317
Ni 9.35426 1.24631 20.3522
Ni 9.35426 3.73893 20.3522
Ni 8.6347 24.9262 18.317
Ni 10.0738 24.9262 16.2817
Ni 10.7934 1.24631 18.317
Ni 5.75647 12.4631 22.3874
Ni 5.75647 9.97048 22.3874
Ni 7.19558 9.97048 20.3522
Ni 7.91514 8.72417 22.3874
Ni 7.91514 11.2168 22.3874
Ni 7.19558 7.47786 20.3522
Ni 8.6347 7.47786 18.317
Ni 9.35426 6.23155 20.3522
Ni 9.35426 8.72417 20.3522
Ni 8.6347 4.98524 18.317
Ni 10.0738 4.98524 16.2817
Ni 10.7934 3.73893 18.317
Ni 10.7934 6.23155 18.317
Ni 10.0738 2.49262 16.2817
Ni 11.5129 2.49262 14.2465
Ni 12.2325 1.24631 16.2817
Ni 12.2325 3.73893 16.2817
Ni 11.5129 24.9262 14.2465
Ni 13.6716 1.24631 14.2465
Ni 5.75647 17.4483 22.3874
Ni 5.75647 14.9557 22.3874
Ni 7.19558 14.9557 20.3522
Ni 7.91514 13.7094 22.3874
Ni 7.91514 16.202 22.3874
Ni 7.19558 12.4631 20.3522
Ni 8.6347 12.4631 18.317
Ni 9.35426 11.2168 20.3522
Ni 9.35426 13.7094 20.3522
Ni 8.6347 9.97048 18.317
Ni 10.0738 9.97048 16.2817
Ni 10.7934 8.72417 18.317
Ni 10.7934 11.2168 18.317
Ni 10.0738 7.47786 16.2817
Ni 11.5129 7.47786 14.2465
Ni 12.2325 6.23155 16.2817
Ni 12.2325 8.72417 16.2817
Ni 11.5129 4.98524 14.2465
Ni 13.6716 3.73893 14.2465
Ni 13.6716 6.23155 14.2465
Ni 5.75647 22.4336 22.3874
Ni 5.75647 19.941 22.3874
Ni 7.19558 19.941 20.3522
Ni 7.91514 18.6947 22.3874
Ni 7.91514 21.1873 22.3874
Ni 7.19558 17.4483 20.3522
Ni 8.6347 17.4483 18.317
Ni 9.35426 16.202 20.3522
Ni 9.35426 18.6947 20.3522
Ni 8.6347 14.9557 18.317
Ni 10.0738 14.9557 16.2817
Ni 10.7934 13.7094 18.317
Ni 10.7934 16.202 18.317
Ni 10.0738 12.4631 16.2817
Ni 11.5129 12.4631 14.2465
Ni 12.2325 11.2168 16.2817
Ni 12.2325 13.7094 16.2817
Ni 11.5129 9.97048 14.2465
Ni 13.6716 8.72417 14.2465
Ni 13.6716 11.2168 14.2465
Ni 7.91514 23.6799 22.3874
Ni 7.19558 22.4336 20.3522
Ni 8.6347 22.4336 18.317
Ni 9.35426 21.1873 20.3522
Ni 9.35426 23.6799 20.3522
Ni 8.6347 19.941 18.317
Ni 10.0738 19.941 16.2817
Ni 10.7934 18.6947 18.317
Ni 10.7934 21.1873 18.317
Ni 10.0738 17.4483 16.2817
Ni 11.5129 17.4483 14.2465
Ni 12.2325 16.202 16.2817
Ni 12.2325 18.6947 16.2817
Ni 11.5129 14.9557 14.2465
Ni 13.6716 13.7094 14.2465
Ni 13.6716 16.202 14.2465
Ni 10.7934 23.6799 18.317
Ni 10.0738 22.4336 16.2817
Ni 11.5129 22.4336 14.2465
Ni 12.2325 21.1873 16.2817
Ni 12.2325 23.6799 16.2817
Ni 11.5129 19.941 14.2465
Ni 13.6716 18.6947 14.2465
Ni 13.6716 21.1873 14.2465
Ni 13.6716 23.6799 14.2465
Ni 10.0738 24.9262 22.3874
Ni 10.0738 4.98524 22.3874
Ni 10.0738 2.49262 22.3874
Ni 11.5129 2.49262 20.3522