1320
Atoms. Timestep: 0
Co 0.000901169 2.52096 22.6002
Co 0.72839 1.26092 2.08228
Co 0.72839 3.78101 2.08228
Co 0.000901169 0.00086715 22.6002
Co 2.18337 1.26092 22.6002
Co 0.000901169 7.56116 22.6002
Co 0.72839 6.30111 2.08228
Co 0.72839 8.82121 2.08228
Co 0.000901169 5.04106 22.6002
Co 2.18337 3.78101 22.6002
Co 2.18337 6.30111 22.6002
Co 0.000901169 12.6013 22.6002
Co 0.72839 11.3413 2.08228
Co 0.72839 13.8614 2.08228
Co 0.000901169 10.0813 22.6002
Co 2.18337 8.82121 22.6002
Co 2.18337 11.3413 22.6002
Co 0.000901169 17.6415 22.6002
Co 0.72839 16.3815 2.08228
Co 0.72839 18.9016 2.08228
Co 0.000901169 15.1214 22.6002
Co 2.18337 13.8614 22.6002
Co 2.18337 16.3815 22.6002
Co 0.000901169 22.6817 22.6002
Co 0.72839 21.4217 2.08228
Co 0.72839 23.9418 2.08228
Co 0.000901169 20.1616 22.6002
Co 2.18337 18.9016 22.6002
Co 2.18337 21.4217 22.6002
Co 2.18337 23.9418 22.6002
Co 26.1905 2.52096 6.1982
Co 0.72839 1.26092 8.25671
Co 0.72839 3.78101 8.25671
Co 26.1905 0.00086715 6.1982
Co 1.45588 0.00086715 4.14018
Co 2.18337 1.26092 6.1982
Co 26.1905 7.56116 6.1982
Co 0.72839 6.30111 8.25671
Co 0.72839 8.82121 8.25671
Co 26.1905 5.04106 6.1982
Co 1.45588 5.04106 4.14018
Co 2.18337 3.78101 6.1982
Co 2.18337 6.30111 6.1982
Co 1.45588 2.52096 4.14018
Co 2.91086 2.52096 2.08228
Co 3.63835 1.26092 4.14018
Co 3.63835 3.78101 4.14018
Co 2.91086 0.00086715 2.08228
Co 4.36584 0.00086715 22.6002
Co 5.09333 1.26092 2.08228
Co 26.1905 12.6013 6.1982
Co 0.72839 11.3413 8.25671
Co 0.72839 13.8614 8.25671
Co 26.1905 10.0813 6.1982
Co 1.45588 10.0813 4.14018
Co 2.18337 8.82121 6.1982
Co 2.18337 11.3413 6.1982
Co 1.45588 7.56116 4.14018
Co 2.91086 7.56116 2.08228
Co 3.63835 6.30111 4.14018
Co 3.63835 8.82121 4.14018
Co 2.91086 5.04106 2.08228
Co 4.36584 5.04106 22.6002
Co 5.09333 3.78101 2.08228
Co 5.09333 6.30111 2.08228
Co 4.36584 2.52096 22.6002
Co 6.5483 1.26092 22.6002
Co 6.5483 3.78101 22.6002
Co 26.1905 17.6415 6.1982
Co 0.72839 16.3815 8.25671
Co 0.72839 18.9016 8.25671
Co 26.1905 15.1214 6.1982
Co 1.45588 15.1214 4.14018
Co 2.18337 13.8614 6.1982
Co 2.18337 16.3815 6.1982
Co 1.45588 12.6013 4.14018
Co 2.91086 12.6013 2.08228
Co 3.63835 11.3413 4.14018
Co 3.63835 13.8614 4.14018
Co 2.91086 10.0813 2.08228
Co 4.36584 10.0813 22.6002
Co 5.09333 8.82121 2.08228
Co 5.09333 11.3413 2.08228
Co 4.36584 7.56116 22.6002
Co 6.5483 6.30111 22.6002
Co 6.5483 8.82121 22.6002
Co 26.1905 22.6817 6.1982
Co 0.72839 21.4217 8.25671
Co 0.72839 23.9418 8.25671
Co 26.1905 20.1616 6.1982
Co 1.45588 20.1616 4.14018
Co 2.18337 18.9016 6.1982
Co 2.18337 21.4217 6.1982
Co 1.45588 17.6415 4.14018
Co 2.91086 17.6415 2.08228
Co 3.63835 16.3815 4.14018
Co 3.63835 18.9016 4.14018
Co 2.91086 15.1214 2.08228
Co 4.36584 15.1214 22.6002
Co 5.09333 13.8614 2.08228
Co 5.09333 16.3815 2.08228
Co 4.36584 12.6013 22.6002
Co 6.5483 11.3413 22.6002
Co 6.5483 13.8614 22.6002
Co 2.18337 23.9418 6.1982
Co 1.45588 22.6817 4.14018
Co 2.91086 22.6817 2.08228
Co 3.63835 21.4217 4.14018
Co 3.63835 23.9418 4.14018
Co 2.91086 20.1616 2.08228
Co 4.36584 20.1616 22.6002
Co 5.09333 18.9016 2.08228
Co 5.09333 21.4217 2.08228
Co 4.36584 17.6415 22.6002
Co 6.5483 16.3815 22.6002
Co 6.5483 18.9016 22.6002
Co 5.09333 23.9418 2.08228
Co 4.36584 22.6817 22.6002
Co 6.5483 21.4217 22.6002
Co 6.5483 23.9418 22.6002
Co 26.1905 2.52096 12.3567
Co 26.1905 0.00086715 12.3567
Co 1.45588 0.00086715 10.3149
Co 2.18337 1.26092 12.3567
Co 26.1905 7.56116 12.3567
Co 26.1905 5.04106 12.3567
Co 1.45588 5.04106 10.3149
Co 2.18337 3.78101 12.3567
Co 2.18337 6.30111 12.3567
Co 1.45588 2.52096 10.3149
Co 2.91086 2.52096 8.25671
Co 3.63835 1.26092 10.3149
Co 3.63835 3.78101 10.3149
Co 2.91086 0.00086715 8.25671
Co 4.36584 0.00086715 6.1982
Co 5.09333 1.26092 8.25671
Co 26.1905 12.6013 12.3567
Co 26.1905 10.0813 12.3567
Co 1.45588 10.0813 10.3149
Co 2.18337 8.82121 12.3567
Co 2.18337 11.3413 12.3567
Co 1.45588 7.56116 10.3149
Co 2.91086 7.56116 8.25671
Co 3.63835 6.30111 10.3149
Co 3.63835 8.82121 10.3149
Co 2.91086 5.04106 8.25671
Co 4.36584 5.04106 6.1982
Co 5.09333 3.78101 8.25671
Co 5.09333 6.30111 8.25671
Co 4.36584 2.52096 6.1982
Co 5.82081 2.52096 4.14018
Co 6.5483 1.26092 6.1982
Co 6.5483 3.78101 6.1982
Co 5.82081 0.00086715 4.14018
Co 7.27579 0.00086715 2.08228
Co 8.00328 1.26092 4.14018
Co 26.1905 17.6415 12.3567
Co 26.1905 15.1214 12.3567
Co 1.45588 15.1214 10.3149
Co 2.18337 13.8614 12.3567
Co 2.18337 16.3815 12.3567
Co 1.45588 12.6013 10.3149
Co 2.91086 12.6013 8.25671
Co 3.63835 11.3413 10.3149
Co 3.63835 13.8614 10.3149
Co 2.91086 10.0813 8.25671
Co 4.36584 10.0813 6.1982
Co 5.09333 8.82121 8.25671
Co 5.09333 11.3413 8.25671
Co 4.36584 7.56116 6.1982
Co 5.82081 7.56116 4.14018
Co 6.5483 6.30111 6.1982
Co 6.5483 8.82121 6.1982
Co 5.82081 5.04106 4.14018
Co 7.27579 5.04106 2.08228
Co 8.00328 3.78101 4.14018
Co 8.00328 6.30111 4.14018
Co 7.27579 2.52096 2.08228
Co 8.73077 2.52096 22.6002
Co 9.45826 1.26092 2.08228
Co 9.45826 3.78101 2.08228
Co 8.73077 0.00086715 22.6002
Co 10.9132 1.26092 22.6002
Co 26.1905 22.6817 12.3567
Co 26.1905 20.1616 12.3567
Co 1.45588 20.1616 10.3149
Co 2.18337 18.9016 12.3567
Co 2.18337 21.4217 12.3567
Co 1.45588 17.6415 10.3149
Co 2.91086 17.6415 8.25671
Co 3.63835 16.3815 10.3149
Co 3.63835 18.9016 10.3149
Co 2.91086 15.1214 8.25671
Co 4.36584 15.1214 6.1982
Co 5.09333 13.8614 8.25671
Co 5.09333 16.3815 8.25671
Co 4.36584 12.6013 6.1982
Co 5.82081 12.6013 4.14018
Co 6.5483 11.3413 6.1982
Co 6.5483 13.8614 6.1982
Co 5.82081 10.0813 4.14018
Co 7.27579 10.0813 2.08228
Co 8.00328 8.82121 4.14018
Co 8.00328 11.3413 4.14018
Co 7.27579 7.56116 2.08228
Co 8.73077 7.56116 22.6002
Co 9.45826 6.30111 2.08228
Co 9.45826 8.82121 2.08228
Co 8.73077 5.04106 22.6002
Co 10.9132 3.78101 22.6002
Co 10.9132 6.30111 22.6002
Co 2.18337 23.9418 12.3567
Co 1.45588 22.6817 10.3149
Co 2.91086 22.6817 8.25671
Co 3.63835 21.4217 10.3149
Co 3.63835 23.9418 10.3149
Co 2.91086 20.1616 8.25671
Co 4.36584 20.1616 6.1982
Co 5.09333 18.9016 8.25671
Co 5.09333 21.4217 8.25671
Co 4.36584 17.6415 6.1982
Co 5.82081 17.6415 4.14018
Co 6.5483 16.3815 6.1982
Co 6.5483 18.9016 6.1982
Co 5.82081 15.1214 4.14018
Co 7.27579 15.1214 2.08228
Co 8.00328 13.8614 4.14018
Co 8.00328 16.3815 4.14018
Co 7.27579 12.6013 2.08228
Co 8.73077 12.6013 22.6002
Co 9.45826 11.3413 2.08228
Co 9.45826 13.8614 2.08228
Co 8.73077 10.0813 22.6002
Co 10.9132 8.82121 22.6002
Co 10.9132 11.3413 22.6002
Co 5.09333 23.9418 8.25671
Co 4.36584 22.6817 6.1982
Co 5.82081 22.6817 4.14018
Co 6.5483 21.4217 6.1982
Co 6.5483 23.9418 6.1982
Co 5.82081 20.1616 4.14018
Co 7.27579 20.1616 2.08228
Co 8.00328 18.9016 4.14018
Co 8.00328 21.4217 4.14018
Co 7.27579 17.6415 2.08228
Co 8.73077 17.6415 22.6002
Co 9.45826 16.3815 2.08228
Co 9.45826 18.9016 2.08228
Co 8.73077 15.1214 22.6002
Co 10.9132 13.8614 22.6002
Co 10.9132 16.3815 22.6002
Co 8.00328 23.9418 4.14018
Co 7.27579 22.6817 2.08228
Co 8.73077 22.6817 22.6002
Co 9.45826 21.4217 2.08228
Co 9.45826 23.9418 2.08228
Co 8.73077 20.1616 22.6002
Co 10.9132 18.9016 22.6002
Co 10.9132 21.4217 22.6002
Co 10.9132 23.9418 22.6002
Co 4.36584 0.00086715 12.3567
Co 4.36584 5.04106 12.3567
Co 4.36584 2.52096 12.3567
Co 5.82081 2.52096 10.3149
Co 6.5483 1.26092 12.3567
Co 6.5483 3.78101 12.3567
Co 5.82081 0.00086715 10.3149
Co 7.27579 0.00086715 8.25671
Co 8.00328 1.26092 10.3149
Co 4.36584 10.0813 12.3567
Co 4.36584 7.56116 12.3567
Co 5.82081 7.56116 10.3149
Co 6.5483 6.30111 12.3567
Co 6.5483 8.82121 12.3567
Co 5.82081 5.04106 10.3149
Co 7.27579 5.04106 8.25671
Co 8.00328 3.78101 10.3149
Co 8.00328 6.30111 10.3149
Co 7.27579 2.52096 8.25671
Co 8.73077 2.52096 6.1982
Co 9.45826 1.26092 8.25671
Co 9.45826 3.78101 8.25671
Co 8.73077 0.00086715 6.1982
Co 10.1858 0.00086715 4.14018
Co 10.9132 1.26092 6.1982
Co 4.36584 15.1214 12.3567
Co 4.36584 12.6013 12.3567
Co 5.82081 12.6013 10.3149
Co 6.5483 11.3413 12.3567
Co 6.5483 13.8614 12.3567
Co 5.82081 10.0813 10.3149
Co 7.27579 10.0813 8.25671
Co 8.00328 8.82121 10.3149
Co 8.00328 11.3413 10.3149
Co 7.27579 7.56116 8.25671
Co 8.73077 7.56116 6.1982
Co 9.45826 6.30111 8.25671
Co 9.45826 8.82121 8.25671
Co 8.73077 5.04106 6.1982
Co 10.1858 5.04106 4.14018
Co 10.9132 3.78101 6.1982
Co 10.9132 6.30111 6.1982
Co 10.1858 2.52096 4.14018
Co 11.6407 2.52096 2.08228
Co 12.3682 1.26092 4.14018
Co 12.3682 3.78101 4.14018
Co 11.6407 0.00086715 2.08228
Co 13.0957 0.00086715 22.6002
Co 13.8232 1.26092 2.08228
Co 4.36584 20.1616 12.3567
Co 4.36584 17.6415 12.3567
Co 5.82081 17.6415 10.3149
Co 6.5483 16.3815 12.3567
Co 6.5483 18.9016 12.3567
Co 5.82081 15.1214 10.3149
Co 7.27579 15.1214 8.25671
Co 8.00328 13.8614 10.3149
Co 8.00328 16.3815 10.3149
Co 7.27579 12.6013 8.25671
Co 8.73077 12.6013 6.1982
Co 9.45826 11.3413 8.25671
Co 9.45826 13.8614 8.25671
Co 8.73077 10.0813 6.1982
Co 10.1858 10.0813 4.14018
Co 10.9132 8.82121 6.1982
Co 10.9132 11.3413 6.1982
Co 10.1858 7.56116 4.14018
Co 11.6407 7.56116 2.08228
Co 12.3682 6.30111 4.14018
Co 12.3682 8.82121 4.14018
Co 11.6407 5.04106 2.08228
Co 13.0957 5.04106 22.6002
Co 13.8232 3.78101 2.08228
Co 13.8232 6.30111 2.08228
Co 13.0957 2.52096 22.6002
Co 15.2782 1.26092 22.6002
Co 15.2782 3.78101 22.6002
Co 4.36584 22.6817 12.3567
Co 5.82081 22.6817 10.3149
Co 6.5483 21.4217 12.3567
Co 6.5483 23.9418 12.3567
Co 5.82081 20.1616 10.3149
Co 7.27579 20.1616 8.25671
Co 8.00328 18.9016 10.3149
Co 8.00328 21.4217 10.3149
Co 7.27579 17.6415 8.25671
Co 8.73077 17.6415 6.1982
Co 9.45826 16.3815 8.25671
Co 9.45826 18.9016 8.25671
Co 8.73077 15.1214 6.1982
Co 10.1858 15.1214 4.14018
Co 10.9132 13.8614 6.1982
Co 10.9132 16.3815 6.1982
Co 10.1858 12.6013 4.14018
Co 11.6407 12.6013 2.08228
Co 12.3682 11.3413 4.14018
Co 12.3682 13.8614 4.14018
Co 11.6407 10.0813 2.08228
Co 13.0957 10.0813 22.6002
Co 13.8232 8.82121 2.08228
Co 13.8232 11.3413 2.08228
Co 13.0957 7.56116 22.6002
Co 15.2782 6.30111 22.6002
Co 15.2782 8.82121 22.6002
Co 8.00328 23.9418 10.3149
Co 7.27579 22.6817 8.25671
Co 8.73077 22.6817 6.1982
Co 9.45826 21.4217 8.25671
Co 9.45826 23.9418 8.25671
Co 8.73077 20.1616 6.1982
Co 10.1858 20.1616 4.14018
Co 10.9132 18.9016 6.1982
Co 10.9132 21.4217 6.1982
Co 10.1858 17.6415 4.14018
Co 11.6407 17.6415 2.08228
Co 12.3682 16.3815 4.14018
Co 12.3682 18.9016 4.14018
Co 11.6407 15.1214 2.08228
Co 13.0957 15.1214 22.6002
Co 13.8232 13.8614 2.08228
Co 13.8232 16.3815 2.08228
Co 13.0957 12.6013 22.6002
Co 15.2782 11.3413 22.6002
Co 15.2782 13.8614 22.6002
Co 10.9132 23.9418 6.1982
Co 10.1858 22.6817 4.14018
Co 11.6407 22.6817 2.08228
Co 12.3682 21.4217 4.14018
Co 12.3682 23.9418 4.14018
Co 11.6407 20.1616 2.08228
Co 13.0957 20.1616 22.6002
Co 13.8232 18.9016 2.08228
Co 13.8232 21.4217 2.08228
Co 13.0957 17.6415 22.6002
Co 15.2782 16.3815 22.6002
Co 15.2782 18.9016 22.6002
Co 13.8232 23.9418 2.08228
Co 13.0957 22.6817 22.6002
Co 15.2782 21.4217 22.6002
Co 15.2782 23.9418 22.6002
Co 8.73077 2.52096 12.3567
Co 8.73077 0.00086715 12.3567
Co 10.1858 0.00086715 10.3149
Co 10.9132 1.26092 12.3567
Co 8.73077 7.56116 12.3567
Co 8.73077 5.04106 12.3567
Co 10.1858 5.04106 10.3149
Co 10.9132 3.78101 12.3567
Co 10.9132 6.30111 12.3567
Co 10.1858 2.52096 10.3149
Co 11.6407 2.52096 8.25671
Co 12.3682 1.26092 10.3149
Co 12.3682 3.78101 10.3149
Co 11.6407 0.00086715 8.25671
Co 13.0957 0.00086715 6.1982
Co 13.8232 1.26092 8.25671
Co 8.73077 12.6013 12.3567
Co 8.73077 10.0813 12.3567
Co 10.1858 10.0813 10.3149
Co 10.9132 8.82121 12.3567
Co 10.9132 11.3413 12.3567
Co 10.1858 7.56116 10.3149
Co 11.6407 7.56116 8.25671
Co 12.3682 6.30111 10.3149
Co 12.3682 8.82121 10.3149
Co 11.6407 5.04106 8.25671
Co 13.0957 5.04106 6.1982
Co 13.8232 3.78101 8.25671
Co 13.8232 6.30111 8.25671
Co 13.0957 2.52096 6.1982
Co 14.5507 2.52096 4.14018
Co 15.2782 1.26092 6.1982
Co 15.2782 3.78101 6.1982
Co 14.5507 0.00086715 4.14018
Co 16.0057 0.00086715 2.08228
Co 16.7332 1.26092 4.14018
Co 8.73077 17.6415 12.3567
Co 8.73077 15.1214 12.3567
Co 10.1858 15.1214 10.3149
Co 10.9132 13.8614 12.3567
Co 10.9132 16.3815 12.3567
Co 10.1858 12.6013 10.3149
Co 11.6407 12.6013 8.25671
Co 12.3682 11.3413 10.3149
Co 12.3682 13.8614 10.3149
Co 11.6407 10.0813 8.25671
Co 13.0957 10.0813 6.1982
Co 13.8232 8.82121 8.25671
Co 13.8232 11.3413 8.25671
Co 13.0957 7.56116 6.1982
Co 14.5507 7.56116 4.14018
Co 15.2782 6.30111 6.1982
Co 15.2782 8.82121 6.1982
Co 14.5507 5.04106 4.14018
Co 16.0057 5.04106 2.08228
Co 16.7332 3.78101 4.14018
Co 16.7332 6.30111 4.14018
Co 16.0057 2.52096 2.08228
Co 17.4606 2.52096 22.6002
Co 18.1881 1.26092 2.08228
Co 18.1881 3.78101 2.08228
Co 17.4606 0.00086715 22.6002
Co 19.6431 1.26092 22.6002
Co 8.73077 22.6817 12.3567
Co 8.73077 20.1616 12.3567
Co 10.1858 20.1616 10.3149
Co 10.9132 18.9016 12.3567
Co 10.9132 21.4217 12.3567
Co 10.1858 17.6415 10.3149
Co 11.6407 17.6415 8.25671
Co 12.3682 16.3815 10.3149
Co 12.3682 18.9016 10.3149
Co 11.6407 15.1214 8.25671
Co 13.0957 15.1214 6.1982
Co 13.8232 13.8614 8.25671
Co 13.8232 16.3815 8.25671
Co 13.0957 12.6013 6.1982
Co 14.5507 12.6013 4.14018
Co 15.2782 11.3413 6.1982
Co 15.2782 13.8614 6.1982
Co 14.5507 10.0813 4.14018
Co 16.0057 10.0813 2.08228
Co 16.7332 8.82121 4.14018
Co 16.7332 11.3413 4.14018
Co 16.0057 7.56116 2.08228
Co 17.4606 7.56116 22.6002
Co 18.1881 6.30111 2.08228
Co 18.1881 8.82121 2.08228
Co 17.4606 5.04106 22.6002
Co 19.6431 3.78101 22.6002
Co 19.6431 6.30111 22.6002
Co 10.9132 23.9418 12.3567
Co 10.1858 22.6817 10.3149
Co 11.6407 22.6817 8.25671
Co 12.3682 21.4217 10.3149
Co 12.3682 23.9418 10.3149
Co 11.6407 20.1616 8.25671
Co 13.0957 20.1616 6.1982
Co 13.8232 18.9016 8.25671
Co 13.8232 21.4217 8.25671
Co 13.0957 17.6415 6.1982
Co 14.5507 17.6415 4.14018
Co 15.2782 16.3815 6.1982
Co 15.2782 18.9016 6.1982
Co 14.5507 15.1214 4.14018
Co 16.0057 15.1214 2.08228
Co 16.7332 13.8614 4.14018
Co 16.7332 16.3815 4.14018
Co 16.0057 12.6013 2.08228
Co 17.4606 12.6013 22.6002
Co 18.1881 11.3413 2.08228
Co 18.1881 13.8614 2.08228
Co 17.4606 10.0813 22.6002
Co 19.6431 8.82121 22.6002
Co 19.6431 11.3413 22.6002
Co 13.8232 23.9418 8.25671
Co 13.0957 22.6817 6.1982
Co 14.5507 22.6817 4.14018
Co 15.2782 21.4217 6.1982
Co 15.2782 23.9418 6.1982
Co 14.5507 20.1616 4.14018
Co 16.0057 20.1616 2.08228
Co 16.7332 18.9016 4.14018
Co 16.7332 21.4217 4.14018
Co 16.0057 17.6415 2.08228
Co 17.4606 17.6415 22.6002
Co 18.1881 16.3815 2.08228
Co 18.1881 18.9016 2.08228
Co 17.4606 15.1214 22.6002
Co 19.6431 13.8614 22.6002
Co 19.6431 16.3815 22.6002
Co 16.7332 23.9418 4.14018
Co 16.0057 22.6817 2.08228
Co 17.4606 22.6817 22.6002
Co 18.1881 21.4217 2.08228
Co 18.1881 23.9418 2.08228
Co 17.4606 20.1616 22.6002
Co 19.6431 18.9016 22.6002
Co 19.6431 21.4217 22.6002
Co 19.6431 23.9418 22.6002
Co 13.0957 0.00086715 12.3567
Co 13.0957 5.04106 12.3567
Co 13.0957 2.52096 12.3567
Co 14.5507 2.52096 10.3149
Co 15.2782 1.26092 12.3567
Co 15.2782 3.78101 12.3567
Co 14.5507 0.00086715 10.3149
Co 16.0057 0.00086715 8.25671
Co 16.7332 1.26092 10.3149
Co 13.0957 10.0813 12.3567
Co 13.0957 7.56116 12.3567
Co 14.5507 7.56116 10.3149
Co 15.2782 6.30111 12.3567
Co 15.2782 8.82121 12.3567
Co 14.5507 5.04106 10.3149
Co 16.0057 5.04106 8.25671
Co 16.7332 3.78101 10.3149
Co 16.7332 6.30111 10.3149
Co 16.0057 2.52096 8.25671
Co 17.4606 2.52096 6.1982
Co 18.1881 1.26092 8.25671
Co 18.1881 3.78101 8.25671
Co 17.4606 0.00086715 6.1982
Co 18.9156 0.00086715 4.14018
Co 19.6431 1.26092 6.1982
Co 13.0957 15.1214 12.3567
Co 13.0957 12.6013 12.3567
Co 14.5507 12.6013 10.3149
Co 15.2782 11.3413 12.3567
Co 15.2782 13.8614 12.3567
Co 14.5507 10.0813 10.3149
Co 16.0057 10.0813 8.25671
Co 16.7332 8.82121 10.3149
Co 16.7332 11.3413 10.3149
Co 16.0057 7.56116 8.25671
Co 17.4606 7.56116 6.1982
Co 18.1881 6.30111 8.25671
Co 18.1881 8.82121 8.25671
Co 17.4606 5.04106 6.1982
Co 18.9156 5.04106 4.14018
Co 19.6431 3.78101 6.1982
Co 19.6431 6.30111 6.1982
Co 18.9156 2.52096 4.14018
Co 20.3706 2.52096 2.08228
Co 21.0981 1.26092 4.14018
Co 21.0981 3.78101 4.14018
Co 20.3706 0.00086715 2.08228
Co 21.8256 0.00086715 22.6002
Co 22.5531 1.26092 2.08228
Co 13.0957 20.1616 12.3567
Co 13.0957 17.6415 12.3567
Co 14.5507 17.6415 10.3149
Co 15.2782 16.3815 12.3567
Co 15.2782 18.9016 12.3567
Co 14.5507 15.1214 10.3149
Co 16.0057 15.1214 8.25671
Co 16.7332 13.8614 10.3149
Co 16.7332 16.3815 10.3149
Co 16.0057 12.6013 8.25671
Co 17.4606 12.6013 6.1982
Co 18.1881 11.3413 8.25671
Co 18.1881 13.8614 8.25671
Co 17.4606 10.0813 6.1982
Co 18.9156 10.0813 4.14018
Co 19.6431 8.82121 6.1982
Co 19.6431 11.3413 6.1982
Co 18.9156 7.56116 4.14018
Co 20.3706 7.56116 2.08228
Co 21.0981 6.30111 4.14018
Co 21.0981 8.82121 4.14018
Co 20.3706 5.04106 2.08228
Co 21.8256 5.04106 22.6002
Co 22.5531 3.78101 2.08228
Co 22.5531 6.30111 2.08228
Co 21.8256 2.52096 22.6002
Co 24.008 1.26092 22.6002
Co 24.008 3.78101 22.6002
Co 13.0957 22.6817 12.3567
Co 14.5507 22.6817 10.3149
Co 15.2782 21.4217 12.3567
Co 15.2782 23.9418 12.3567
Co 14.5507 20.1616 10.3149
Co 16.0057 20.1616 8.25671
Co 16.7332 18.9016 10.3149
Co 16.7332 21.4217 10.3149
Co 16.0057 17.6415 8.25671
Co 17.4606 17.6415 6.1982
Co 18.1881 16.3815 8.25671
Co 18.1881 18.9016 8.25671
Co 17.4606 15.1214 6.1982
Co 18.9156 15.1214 4.14018
Co 19.6431 13.8614 6.1982
Co 19.6431 16.3815 6.1982
Co 18.9156 12.6013 4.14018
Co 20.3706 12.6013 2.08228
Co 21.0981 11.3413 4.14018
Co 21.0981 13.8614 4.14018
Co 20.3706 10.0813 2.08228
Co 21.8256 10.0813 22.6002
Co 22.5531 8.82121 2.08228
Co 22.5531 11.3413 2.08228
Co 21.8256 7.56116 22.6002
Co 24.008 6.30111 22.6002
Co 24.008 8.82121 22.6002
Co 16.7332 23.9418 10.3149
Co 16.0057 22.6817 8.25671
Co 17.4606 22.6817 6.1982
Co 18.1881 21.4217 8.25671
Co 18.1881 23.9418 8.25671
Co 17.4606 20.1616 6.1982
Co 18.9156 20.1616 4.14018
Co 19.6431 18.9016 6.1982
Co 19.6431 21.4217 6.1982
Co 18.9156 17.6415 4.14018
Co 20.3706 17.6415 2.08228
Co 21.0981 16.3815 4.14018
Co 21.0981 18.9016 4.14018
Co 20.3706 15.1214 2.08228
Co 21.8256 15.1214 22.6002
Co 22.5531 13.8614 2.08228
Co 22.5531 16.3815 2.08228
Co 21.8256 12.6013 22.6002
Co 24.008 11.3413 22.6002
Co 24.008 13.8614 22.6002
Co 19.6431 23.9418 6.1982
Co 18.9156 22.6817 4.14018
Co 20.3706 22.6817 2.08228
Co 21.0981 21.4217 4.14018
Co 21.0981 23.9418 4.14018
Co 20.3706 20.1616 2.08228
Co 21.8256 20.1616 22.6002
Co 22.5531 18.9016 2.08228
Co 22.5531 21.4217 2.08228
Co 21.8256 17.6415 22.6002
Co 24.008 16.3815 22.6002
Co 24.008 18.9016 22.6002
Co 22.5531 23.9418 2.08228
Co 21.8256 22.6817 22.6002
Co 24.008 21.4217 22.6002
Co 24.008 23.9418 22.6002
Co 17.4606 2.52096 12.3567
Co 17.4606 0.00086715 12.3567
Co 18.9156 0.00086715 10.3149
Co 19.6431 1.26092 12.3567
Co 17.4606 7.56116 12.3567
Co 17.4606 5.04106 12.3567
Co 18.9156 5.04106 10.3149
Co 19.6431 3.78101 12.3567
Co 19.6431 6.30111 12.3567
Co 18.9156 2.52096 10.3149
Co 20.3706 2.52096 8.25671
Co 21.0981 1.26092 10.3149
Co 21.0981 3.78101 10.3149
Co 20.3706 0.00086715 8.25671
Co 21.8256 0.00086715 6.1982
Co 22.5531 1.26092 8.25671
Co 17.4606 12.6013 12.3567
Co 17.4606 10.0813 12.3567
Co 18.9156 10.0813 10.3149
Co 19.6431 8.82121 12.3567
Co 19.6431 11.3413 12.3567
Co 18.9156 7.56116 10.3149
Co 20.3706 7.56116 8.25671
Co 21.0981 6.30111 10.3149
Co 21.0981 8.82121 10.3149
Co 20.3706 5.04106 8.25671
Co 21.8256 5.04106 6.1982
Co 22.5531 3.78101 8.25671
Co 22.5531 6.30111 8.25671
Co 21.8256 2.52096 6.1982
Co 23.2806 2.52096 4.14018
Co 24.008 1.26092 6.1982
Co 24.008 3.78101 6.1982
Co 23.2806 0.00086715 4.14018
Co 24.7355 0.00086715 2.08228
Co 25.463 1.26092 4.14018
Co 17.4606 17.6415 12.3567
Co 17.4606 15.1214 12.3567
Co 18.9156 15.1214 10.3149
Co 19.6431 13.8614 12.3567
Co 19.6431 16.3815 12.3567
Co 18.9156 12.6013 10.3149
Co 20.3706 12.6013 8.25671
Co 21.0981 11.3413 10.3149
Co 21.0981 13.8614 10.3149
Co 20.3706 10.0813 8.25671
Co 21.8256 10.0813 6.1982
Co 22.5531 8.82121 8.25671
Co 22.5531 11.3413 8.25671
Co 21.8256 7.56116 6.1982
Co 23.2806 7.56116 4.14018
Co 24.008 6.30111 6.1982
Co 24.008 8.82121 6.1982
Co 23.2806 5.04106 4.14018
Co 24.7355 5.04106 2.08228
Co 25.463 3.78101 4.14018
Co 25.463 6.30111 4.14018
Co 24.7355 2.52096 2.08228
Co 17.4606 22.6817 12.3567
Co 17.4606 20.1616 12.3567
Co 18.9156 20.1616 10.3149
Co 19.6431 18.9016 12.3567
Co 19.6431 21.4217 12.3567
Co 18.9156 17.6415 10.3149
Co 20.3706 17.6415 8.25671
Co 21.0981 16.3815 10.3149
Co 21.0981 18.9016 10.3149
Co 20.3706 15.1214 8.25671
Co 21.8256 15.1214 6.1982
Co 22.5531 13.8614 8.25671
Co 22.5531 16.3815 8.25671
Co 21.8256 12.6013 6.1982
Co 23.2806 12.6013 4.14018
Co 24.008 11.3413 6.1982
Co 24.008 13.8614 6.1982
Co 23.2806 10.0813 4.14018
Co 24.7355 10.0813 2.08228
Co 25.463 8.82121 4.14018
Co 25.463 11.3413 4.14018
Co 24.7355 7.56116 2.08228
Co 19.6431 23.9418 12.3567
Co 18.9156 22.6817 10.3149
Co 20.3706 22.6817 8.25671
Co 21.0981 21.4217 10.3149
Co 21.0981 23.9418 10.3149
Co 20.3706 20.1616 8.25671
Co 21.8256 20.1616 6.1982
Co 22.5531 18.9016 8.25671
Co 22.5531 21.4217 8.25671
Co 21.8256 17.6415 6.1982
Co 23.2806 17.6415 4.14018
Co 24.008 16.3815 6.1982
Co 24.008 18.9016 6.1982
Co 23.2806 15.1214 4.14018
Co 24.7355 15.1214 2.08228
Co 25.463 13.8614 4.14018
Co 25.463 16.3815 4.14018
Co 24.7355 12.6013 2.08228
Co 22.5531 23.9418 8.25671
Co 21.8256 22.6817 6.1982
Co 23.2806 22.6817 4.14018
Co 24.008 21.4217 6.1982
Co 24.008 23.9418 6.1982
Co 23.2806 20.1616 4.14018
Co 24.7355 20.1616 2.08228
Co 25.463 18.9016 4.14018
Co 25.463 21.4217 4.14018
Co 24.7355 17.6415 2.08228
Co 25.463 23.9418 4.14018
Co 24.7355 22.6817 2.08228
Co 21.8256 0.00086715 12.3567
Co 21.8256 5.04106 12.3567
Co 21.8256 2.52096 12.3567
Co 23.2806 2.52096 10.3149
Co 24.008 1.26092 12.3567
Co 24.008 3.78101 12.3567
Co 23.2806 0.00086715 10.3149
Co 24.7355 0.00086715 8.25671
Co 25.463 1.26092 10.3149
Co 21.8256 10.0813 12.3567
Co 21.8256 7.56116 12.3567
Co 23.2806 7.56116 10.3149
Co 24.008 6.30111 12.3567
Co 24.008 8.82121 12.3567
Co 23.2806 5.04106 10.3149
Co 24.7355 5.04106 8.25671
Co 25.463 3.78101 10.3149
Co 25.463 6.30111 10.3149
Co 24.7355 2.52096 8.25671
Co 21.8256 15.1214 12.3567
Co 21.8256 12.6013 12.3567
Co 23.2806 12.6013 10.3149
Co 24.008 11.3413 12.3567
Co 24.008 13.8614 12.3567
Co 23.2806 10.0813 10.3149
Co 24.7355 10.0813 8.25671
Co 25.463 8.82121 10.3149
Co 25.463 11.3413 10.3149
Co 24.7355 7.56116 8.25671
Co 21.8256 20.1616 12.3567
Co 21.8256 17.6415 12.3567
Co 23.2806 17.6415 10.3149
Co 24.008 16.3815 12.3567
Co 24.008 18.9016 12.3567
Co 23.2806 15.1214 10.3149
Co 24.7355 15.1214 8.25671
Co 25.463 13.8614 10.3149
Co 25.463 16.3815 10.3149
Co 24.7355 12.6013 8.25671
Co 21.8256 22.6817 12.3567
Co 23.2806 22.6817 10.3149
Co 24.008 21.4217 12.3567
Co 24.008 23.9418 12.3567
Co 23.2806 20.1616 10.3149
Co 24.7355 20.1616 8.25671
Co 25.463 18.9016 10.3149
Co 25.463 21.4217 10.3149
Co 24.7355 17.6415 8.25671
Co 25.463 23.9418 10.3149
Co 24.7355 22.6817 8.25671
Co 25.463 1.26092 14.3837
Co 25.463 3.78101 14.3837
Co 25.463 6.30111 14.3837
Co 25.463 8.82121 14.3837
Co 25.463 11.3413 14.3837
Co 25.463 13.8614 14.3837
Co 25.463 16.3815 14.3837
Co 25.463 18.9016 14.3837
Co 25.463 21.4217 14.3837
Co 25.463 23.9418 14.3837
Co 24.7355 2.52096 18.4837
Co 25.463 1.26092 20.5422
Co 25.463 3.78101 20.5422
Co 24.7355 0.00086715 18.4837
Co 0.000901169 0.00086715 16.4255
Co 0.72839 1.26092 18.4837
Co 24.7355 7.56116 18.4837
Co 25.463 6.30111 20.5422
Co 25.463 8.82121 20.5422
Co 24.7355 5.04106 18.4837
Co 0.000901169 5.04106 16.4255
Co 0.72839 3.78101 18.4837
Co 0.72839 6.30111 18.4837
Co 0.000901169 2.52096 16.4255
Co 1.45588 2.52096 14.3837
Co 2.18337 1.26092 16.4255
Co 2.18337 3.78101 16.4255
Co 1.45588 0.00086715 14.3837
Co 3.63835 1.26092 14.3837
Co 24.7355 12.6013 18.4837
Co 25.463 11.3413 20.5422
Co 25.463 13.8614 20.5422
Co 24.7355 10.0813 18.4837
Co 0.000901169 10.0813 16.4255
Co 0.72839 8.82121 18.4837
Co 0.72839 11.3413 18.4837
Co 0.000901169 7.56116 16.4255
Co 1.45588 7.56116 14.3837
Co 2.18337 6.30111 16.4255
Co 2.18337 8.82121 16.4255
Co 1.45588 5.04106 14.3837
Co 3.63835 3.78101 14.3837
Co 3.63835 6.30111 14.3837
Co 24.7355 17.6415 18.4837
Co 25.463 16.3815 20.5422
Co 25.463 18.9016 20.5422
Co 24.7355 15.1214 18.4837
Co 0.000901169 15.1214 16.4255
Co 0.72839 13.8614 18.4837
Co 0.72839 16.3815 18.4837
Co 0.000901169 12.6013 16.4255
Co 1.45588 12.6013 14.3837
Co 2.18337 11.3413 16.4255
Co 2.18337 13.8614 16.4255
Co 1.45588 10.0813 14.3837
Co 3.63835 8.82121 14.3837
Co 3.63835 11.3413 14.3837
Co 24.7355 22.6817 18.4837
Co 25.463 21.4217 20.5422
Co 25.463 23.9418 20.5422
Co 24.7355 20.1616 18.4837
Co 0.000901169 20.1616 16.4255
Co 0.72839 18.9016 18.4837
Co 0.72839 21.4217 18.4837
Co 0.000901169 17.6415 16.4255
Co 1.45588 17.6415 14.3837
Co 2.18337 16.3815 16.4255
Co 2.18337 18.9016 16.4255
Co 1.45588 15.1214 14.3837
Co 3.63835 13.8614 14.3837
Co 3.63835 16.3815 14.3837
Co 0.72839 23.9418 18.4837
Co 0.000901169 22.6817 16.4255
Co 1.45588 22.6817 14.3837
Co 2.18337 21.4217 16.4255
Co 2.18337 23.9418 16.4255
Co 1.45588 20.1616 14.3837
Co 3.63835 18.9016 14.3837
Co 3.63835 21.4217 14.3837
Co 3.63835 23.9418 14.3837
Co 1.45588 2.52096 20.5422
Co 1.45588 0.00086715 20.5422
Co 2.91086 0.00086715 18.4837
Co 3.63835 1.26092 20.5422
Co 1.45588 7.56116 20.5422
Co 1.45588 5.04106 20.5422
Co 2.91086 5.04106 18.4837
Co 3.63835 3.78101 20.5422
Co 3.63835 6.30111 20.5422
Co 2.91086 2.52096 18.4837
Co 4.36584 2.52096 16.4255
Co 5.09333 1.26092 18.4837
Co 5.09333 3.78101 18.4837
Co 4.36584 0.00086715 16.4255
Co 5.82081 0.00086715 14.3837
Co 6.5483 1.26092 16.4255
Co 1.45588 12.6013 20.5422
Co 1.45588 10.0813 20.5422
Co 2.91086 10.0813 18.4837
Co 3.63835 8.82121 20.5422
Co 3.63835 11.3413 20.5422
Co 2.91086 7.56116 18.4837
Co 4.36584 7.56116 16.4255
Co 5.09333 6.30111 18.4837
Co 5.09333 8.82121 18.4837
Co 4.36584 5.04106 16.4255
Co 5.82081 5.04106 14.3837
Co 6.5483 3.78101 16.4255
Co 6.5483 6.30111 16.4255
Co 5.82081 2.52096 14.3837
Co 8.00328 1.26092 14.3837
Co 8.00328 3.78101 14.3837
Co 1.45588 17.6415 20.5422
Co 1.45588 15.1214 20.5422
Co 2.91086 15.1214 18.4837
Co 3.63835 13.8614 20.5422
Co 3.63835 16.3815 20.5422
Co 2.91086 12.6013 18.4837
Co 4.36584 12.6013 16.4255
Co 5.09333 11.3413 18.4837
Co 5.09333 13.8614 18.4837
Co 4.36584 10.0813 16.4255
Co 5.82081 10.0813 14.3837
Co 6.5483 8.82121 16.4255
Co 6.5483 11.3413 16.4255
Co 5.82081 7.56116 14.3837
Co 8.00328 6.30111 14.3837
Co 8.00328 8.82121 14.3837
Co 1.45588 22.6817 20.5422
Co 1.45588 20.1616 20.5422
Co 2.91086 20.1616 18.4837
Co 3.63835 18.9016 20.5422
Co 3.63835 21.4217 20.5422
Co 2.91086 17.6415 18.4837
Co 4.36584 17.6415 16.4255
Co 5.09333 16.3815 18.4837
Co 5.09333 18.9016 18.4837
Co 4.36584 15.1214 16.4255
Co 5.82081 15.1214 14.3837
Co 6.5483 13.8614 16.4255
Co 6.5483 16.3815 16.4255
Co 5.82081 12.6013 14.3837
Co 8.00328 11.3413 14.3837
Co 8.00328 13.8614 14.3837
Co 3.63835 23.9418 20.5422
Co 2.91086 22.6817 18.4837
Co 4.36584 22.6817 16.4255
Co 5.09333 21.4217 18.4837
Co 5.09333 23.9418 18.4837
Co 4.36584 20.1616 16.4255
Co 5.82081 20.1616 14.3837
Co 6.5483 18.9016 16.4255
Co 6.5483 21.4217 16.4255
Co 5.82081 17.6415 14.3837
Co 8.00328 16.3815 14.3837
Co 8.00328 18.9016 14.3837
Co 6.5483 23.9418 16.4255
Co 5.82081 22.6817 14.3837
Co 8.00328 21.4217 14.3837
Co 8.00328 23.9418 14.3837
Co 5.82081 0.00086715 20.5422
Co 5.82081 5.04106 20.5422
Co 5.82081 2.52096 20.5422
Co 7.27579 2.52096 18.4837
Co 8.00328 1.26092 20.5422
Co 8.00328 3.78101 20.5422
Co 7.27579 0.00086715 18.4837
Co 8.73077 0.00086715 16.4255
Co 9.45826 1.26092 18.4837
Co 5.82081 10.0813 20.5422
Co 5.82081 7.56116 20.5422
Co 7.27579 7.56116 18.4837
Co 8.00328 6.30111 20.5422
Co 8.00328 8.82121 20.5422
Co 7.27579 5.04106 18.4837
Co 8.73077 5.04106 16.4255
Co 9.45826 3.78101 18.4837
Co 9.45826 6.30111 18.4837
Co 8.73077 2.52096 16.4255
Co 10.1858 2.52096 14.3837
Co 10.9132 1.26092 16.4255
Co 10.9132 3.78101 16.4255
Co 10.1858 0.00086715 14.3837
Co 12.3682 1.26092 14.3837
Co 5.82081 15.1214 20.5422
Co 5.82081 12.6013 20.5422
Co 7.27579 12.6013 18.4837
Co 8.00328 11.3413 20.5422
Co 8.00328 13.8614 20.5422
Co 7.27579 10.0813 18.4837
Co 8.73077 10.0813 16.4255
Co 9.45826 8.82121 18.4837
Co 9.45826 11.3413 18.4837
Co 8.73077 7.56116 16.4255
Co 10.1858 7.56116 14.3837
Co 10.9132 6.30111 16.4255
Co 10.9132 8.82121 16.4255
Co 10.1858 5.04106 14.3837
Co 12.3682 3.78101 14.3837
Co 12.3682 6.30111 14.3837
Co 5.82081 20.1616 20.5422
Co 5.82081 17.6415 20.5422
Co 7.27579 17.6415 18.4837
Co 8.00328 16.3815 20.5422
Co 8.00328 18.9016 20.5422
Co 7.27579 15.1214 18.4837
Co 8.73077 15.1214 16.4255
Co 9.45826 13.8614 18.4837
Co 9.45826 16.3815 18.4837
Co 8.73077 12.6013 16.4255
Co 10.1858 12.6013 14.3837
Co 10.9132 11.3413 16.4255
Co 10.9132 13.8614 16.4255
Co 10.1858 10.0813 14.3837
Co 12.3682 8.82121 14.3837
Co 12.3682 11.3413 14.3837
Co 5.82081 22.6817 20.5422
Co 7.27579 22.6817 18.4837
Co 8.00328 21.4217 20.5422
Co 8.00328 23.9418 20.5422
Co 7.27579 20.1616 18.4837
Co 8.73077 20.1616 16.4255
Co 9.45826 18.9016 18.4837
Co 9.45826 21.4217 18.4837
Co 8.73077 17.6415 16.4255
Co 10.1858 17.6415 14.3837
Co 10.9132 16.3815 16.4255
Co 10.9132 18.9016 16.4255
Co 10.1858 15.1214 14.3837
Co 12.3682 13.8614 14.3837
Co 12.3682 16.3815 14.3837
Co 9.45826 23.9418 18.4837
Co 8.73077 22.6817 16.4255
Co 10.1858 22.6817 14.3837
Co 10.9132 21.4217 16.4255
Co 10.9132 23.9418 16.4255
Co 10.1858 20.1616 14.3837
Co 12.3682 18.9016 14.3837
Co 12.3682 21.4217 14.3837
Co 12.3682 23.9418 14.3837
Co 10.1858 2.52096 20.5422
Co 10.1858 0.00086715 20.5422
Co 11.6407 0.00086715 18.4837
Co 12.3682 1.26092 20.5422
Co 10.1858 7.56116 20.5422
Co 10.1858 5.04106 20.5422
Co 11.6407 5.04106 18.4837
Co 12.3682 3.78101 20.5422
Co 12.3682 6.30111 20.5422
Co 11.6407 2.52096 18.4837
Co 13.0957 2.52096 16.4255
Co 13.8232 1.26092 18.4837
Co 13.8232 3.78101 18.4837
Co 13.0957 0.00086715 16.4255
Co 14.5507 0.00086715 14.3837
Co 15.2782 1.26092 16.4255
Co 10.1858 12.6013 20.5422
Co 10.1858 10.0813 20.5422
Co 11.6407 10.0813 18.4837
Co 12.3682 8.82121 20.5422
Co 12.3682 11.3413 20.5422
Co 11.6407 7.56116 18.4837
Co 13.0957 7.56116 16.4255
Co 13.8232 6.30111 18.4837
Co 13.8232 8.82121 18.4837
Co 13.0957 5.04106 16.4255
Co 14.5507 5.04106 14.3837
Co 15.2782 3.78101 16.4255
Co 15.2782 6.30111 16.4255