250
# CELL(abcABC):   14.27700    14.27700    14.27700    90.00000    90.00000    90.00000  cell{angstrom}  Traj: positions{angstrom} Step:          52  Bead:       0 
      Fe  4.35358e-02  4.34840e-02  4.34786e-02
      Fe  1.47117e+00  1.47113e+00  1.47120e+00
      Fe  2.89890e+00  4.34677e-02  4.35566e-02
      Fe  4.32663e+00  1.47117e+00  1.47126e+00
      Fe  5.75431e+00  4.35133e-02  4.35016e-02
      Fe  7.18200e+00  1.47123e+00  1.47120e+00
      Fe  8.60966e+00  4.35061e-02  4.35192e-02
      Fe  1.00374e+01  1.47118e+00  1.47114e+00
      Fe  1.14651e+01  4.34756e-02  4.34718e-02
      Fe  1.28928e+01  1.47114e+00  1.47116e+00
      Fe  4.34750e-02  2.89891e+00  4.34433e-02
      Fe  1.47122e+00  4.32657e+00  1.47110e+00
      Fe  2.89888e+00  2.89881e+00  4.35475e-02
      Fe  4.32657e+00  4.32660e+00  1.47114e+00
      Fe  5.75427e+00  2.89883e+00  4.34802e-02
      Fe  7.18193e+00  4.32655e+00  1.47115e+00
      Fe  8.60958e+00  2.89890e+00  4.34327e-02
      Fe  1.00373e+01  4.32655e+00  1.47124e+00
      Fe  1.14651e+01  2.89891e+00  4.34718e-02
      Fe  1.28928e+01  4.32659e+00  1.47115e+00
      Fe  4.34719e-02  5.75434e+00  4.34866e-02
      Fe  1.47120e+00  7.18199e+00  1.47116e+00
      Fe  2.89885e+00  5.75432e+00  4.34119e-02
      Fe  4.32660e+00  7.18202e+00  1.47113e+00
      Fe  5.75421e+00  5.75430e+00  4.34686e-02
      Fe  7.18194e+00  7.18197e+00  1.47115e+00
      Fe  8.60967e+00  5.75431e+00  4.35196e-02
      Fe  1.00374e+01  7.18197e+00  1.47127e+00
      Fe  1.14651e+01  5.75427e+00  4.35117e-02
      Fe  1.28928e+01  7.18198e+00  1.47129e+00
      Fe  4.35037e-02  8.60970e+00  4.34903e-02
      Fe  1.47119e+00  1.00374e+01  1.47125e+00
      Fe  2.89884e+00  8.60977e+00  4.34805e-02
      Fe  4.32666e+00  1.00374e+01  1.47121e+00
      Fe  5.75429e+00  8.60968e+00  4.34293e-02
      Fe  7.18195e+00  1.00373e+01  1.47116e+00
      Fe  8.60968e+00  8.60970e+00  4.35287e-02
      Fe  1.00374e+01  1.00374e+01  1.47123e+00
      Fe  1.14651e+01  8.60969e+00  4.35547e-02
      Fe  1.28928e+01  1.00374e+01  1.47119e+00
      Fe  4.34906e-02  1.14651e+01  4.35015e-02
      Fe  1.47124e+00  1.28928e+01  1.47125e+00
      Fe  2.89894e+00  1.14650e+01  4.35352e-02
      Fe  4.32664e+00  1.28928e+01  1.47125e+00
      Fe  5.75429e+00  1.14650e+01  4.34956e-02
      Fe  7.18200e+00  1.28928e+01  1.47117e+00
      Fe  8.60970e+00  1.14651e+01  4.34964e-02
      Fe  1.00374e+01  1.28928e+01  1.47120e+00
      Fe  1.14651e+01  1.14651e+01  4.35335e-02
      Fe  1.28928e+01  1.28928e+01  1.47120e+00
      Fe  4.35043e-02  4.35253e-02  2.89899e+00
      Fe  1.47120e+00  1.47121e+00  4.32660e+00
      Fe  2.89894e+00  4.34901e-02  2.89895e+00
      Fe  4.32660e+00  1.47116e+00  4.32662e+00
      Fe  5.75434e+00  4.35201e-02  2.89895e+00
      Fe  7.18198e+00  1.47124e+00  4.32662e+00
      Fe  8.60966e+00  4.35087e-02  2.89885e+00
      Fe  1.00374e+01  1.47118e+00  4.32659e+00
      Fe  1.14651e+01  4.35032e-02  2.89887e+00
      Fe  1.28928e+01  1.47121e+00  4.32663e+00
      Fe  4.35033e-02  2.89887e+00  2.89885e+00
      Fe  1.47121e+00  4.32653e+00  4.32656e+00
      Fe  2.89890e+00  2.89886e+00  2.89884e+00
      Fe  4.32657e+00  4.32661e+00  4.32658e+00
      Fe  5.75424e+00  2.89892e+00  2.89893e+00
      Fe  7.18201e+00  4.32657e+00  4.32660e+00
      Fe  8.60970e+00  2.89887e+00  2.89894e+00
      Fe  1.00374e+01  4.32663e+00  4.32656e+00
      Fe  1.14651e+01  2.89887e+00  2.89889e+00
      Fe  1.28928e+01  4.32657e+00  4.32661e+00
      Fe  4.35617e-02  5.75423e+00  2.89892e+00
      Fe  1.47126e+00  7.18199e+00  4.32653e+00
      Fe  2.89892e+00  5.75427e+00  2.89882e+00
      Fe  4.32658e+00  7.18197e+00  4.32658e+00
      Fe  5.75426e+00  5.75424e+00  2.89890e+00
      Fe  7.18199e+00  7.18196e+00  4.32659e+00
      Fe  8.60962e+00  5.75425e+00  2.89887e+00
      Fe  1.00374e+01  7.18194e+00  4.32659e+00
      Fe  1.14651e+01  5.75429e+00  2.89892e+00
      Fe  1.28928e+01  7.18199e+00  4.32658e+00
      Fe  4.35040e-02  8.60967e+00  2.89888e+00
      Fe  1.47120e+00  1.00373e+01  4.32663e+00
      Fe  2.89891e+00  8.60970e+00  2.89888e+00
      Fe  4.32665e+00  1.00374e+01  4.32658e+00
      Fe  5.75427e+00  8.60963e+00  2.89882e+00
      Fe  7.18198e+00  1.00373e+01  4.32654e+00
      Fe  8.60965e+00  8.60964e+00  2.89887e+00
      Fe  1.00373e+01  1.00374e+01  4.32660e+00
      Fe  1.14651e+01  8.60970e+00  2.89894e+00
      Fe  1.28928e+01  1.00373e+01  4.32660e+00
      Fe  4.34966e-02  1.14651e+01  2.89892e+00
      Fe  1.47124e+00  1.28928e+01  4.32663e+00
      Fe  2.89895e+00  1.14651e+01  2.89900e+00
      Fe  4.32660e+00  1.28928e+01  4.32664e+00
      Fe  5.75436e+00  1.14651e+01  2.89893e+00
      Fe  7.18201e+00  1.28928e+01  4.32657e+00
      Fe  8.60970e+00  1.14650e+01  2.89887e+00
      Fe  1.00373e+01  1.28928e+01  4.32654e+00
      Fe  1.14651e+01  1.14651e+01  2.89894e+00
      Fe  1.28928e+01  1.28928e+01  4.32658e+00
      Fe  4.35169e-02  4.34528e-02  5.75429e+00
      Fe  1.47118e+00  1.47114e+00  7.18201e+00
      Fe  2.89891e+00  4.34795e-02  5.75433e+00
      Fe  4.32660e+00  1.47120e+00  7.18196e+00
      Fe  5.75436e+00  4.34606e-02  5.75428e+00
      Fe  7.18197e+00  1.47120e+00  7.18197e+00
      Fe  8.60965e+00  4.35091e-02  5.75427e+00
      Fe  1.00374e+01  1.47111e+00  7.18194e+00
      Fe  1.14651e+01  4.34463e-02  5.75426e+00
      Fe  1.28928e+01  1.47119e+00  7.18200e+00
      Fe  4.35361e-02  2.89887e+00  5.75429e+00
      Fe  1.47120e+00  4.32655e+00  7.18192e+00
      Fe  2.89892e+00  2.89886e+00  5.75432e+00
      Fe  4.32659e+00  4.32657e+00  7.18194e+00
      Fe  5.75431e+00  2.89900e+00  5.75427e+00
      Fe  7.18200e+00  4.32660e+00  7.18204e+00
      Fe  8.60973e+00  2.89891e+00  5.75431e+00
      Fe  1.00374e+01  4.32657e+00  7.18200e+00
      Fe  1.14651e+01  2.89889e+00  5.75432e+00
      Fe  1.28928e+01  4.32660e+00  7.18198e+00
      Fe  4.35393e-02  5.75428e+00  5.75423e+00
      Fe  1.47124e+00  7.18196e+00  7.18189e+00
      Fe  2.89889e+00  5.75426e+00  5.75422e+00
      Fe  4.32658e+00  7.18196e+00  7.18196e+00
      Fe  5.75432e+00  5.75428e+00  5.75426e+00
      Fe  7.18196e+00  7.18197e+00  7.18198e+00
      Fe  8.60967e+00  5.75427e+00  5.75437e+00
      Fe  1.00374e+01  7.18196e+00  7.18202e+00
      Fe  1.14651e+01  5.75431e+00  5.75431e+00
      Fe  1.28928e+01  7.18200e+00  7.18202e+00
      Fe  4.34931e-02  8.60968e+00  5.75428e+00
      Fe  1.47115e+00  1.00373e+01  7.18200e+00
      Fe  2.89895e+00  8.60970e+00  5.75431e+00
      Fe  4.32661e+00  1.00374e+01  7.18198e+00
      Fe  5.75429e+00  8.60964e+00  5.75424e+00
      Fe  7.18194e+00  1.00374e+01  7.18196e+00
      Fe  8.60964e+00  8.60963e+00  5.75429e+00
      Fe  1.00374e+01  1.00375e+01  7.18191e+00
      Fe  1.14651e+01  8.60965e+00  5.75425e+00
      Fe  1.28928e+01  1.00373e+01  7.18196e+00
      Fe  4.35071e-02  1.14651e+01  5.75432e+00
      Fe  1.47121e+00  1.28928e+01  7.18204e+00
      Fe  2.89885e+00  1.14651e+01  5.75434e+00
      Fe  4.32660e+00  1.28928e+01  7.18204e+00
      Fe  5.75430e+00  1.14651e+01  5.75426e+00
      Fe  7.18194e+00  1.28928e+01  7.18198e+00
      Fe  8.60964e+00  1.14652e+01  5.75422e+00
      Fe  1.00373e+01  1.28928e+01  7.18202e+00
      Fe  1.14650e+01  1.14651e+01  5.75428e+00
      Fe  1.28928e+01  1.28928e+01  7.18201e+00
      Fe  4.35361e-02  4.35572e-02  8.60973e+00
      Fe  1.47121e+00  1.47126e+00  1.00374e+01
      Fe  2.89890e+00  4.35406e-02  8.60976e+00
      Fe  4.32662e+00  1.47113e+00  1.00375e+01
      Fe  5.75430e+00  4.35268e-02  8.60970e+00
      Fe  7.18194e+00  1.47114e+00  1.00374e+01
      Fe  8.60964e+00  4.35133e-02  8.60966e+00
      Fe  1.00373e+01  1.47120e+00  1.00374e+01
      Fe  1.14652e+01  4.34945e-02  8.60966e+00
      Fe  1.28928e+01  1.47125e+00  1.00373e+01
      Fe  4.35385e-02  2.89890e+00  8.60968e+00
      Fe  1.47122e+00  4.32659e+00  1.00374e+01
      Fe  2.89892e+00  2.89882e+00  8.60965e+00
      Fe  4.32655e+00  4.32658e+00  1.00373e+01
      Fe  5.75427e+00  2.89890e+00  8.60970e+00
      Fe  7.18190e+00  4.32660e+00  1.00374e+01
      Fe  8.60970e+00  2.89883e+00  8.60966e+00
      Fe  1.00373e+01  4.32657e+00  1.00374e+01
      Fe  1.14651e+01  2.89883e+00  8.60961e+00
      Fe  1.28927e+01  4.32663e+00  1.00373e+01
      Fe  4.35471e-02  5.75427e+00  8.60968e+00
      Fe  1.47118e+00  7.18194e+00  1.00373e+01
      Fe  2.89890e+00  5.75428e+00  8.60962e+00
      Fe  4.32648e+00  7.18202e+00  1.00373e+01
      Fe  5.75424e+00  5.75429e+00  8.60971e+00
      Fe  7.18191e+00  7.18196e+00  1.00374e+01
      Fe  8.60962e+00  5.75427e+00  8.60967e+00
      Fe  1.00373e+01  7.18200e+00  1.00374e+01
      Fe  1.14651e+01  5.75427e+00  8.60971e+00
      Fe  1.28927e+01  7.18196e+00  1.00374e+01
      Fe  4.34516e-02  8.60966e+00  8.60969e+00
      Fe  1.47112e+00  1.00374e+01  1.00374e+01
      Fe  2.89889e+00  8.60968e+00  8.60961e+00
      Fe  4.32656e+00  1.00374e+01  1.00374e+01
      Fe  5.75427e+00  8.60971e+00  8.60967e+00
      Fe  7.18196e+00  1.00374e+01  1.00374e+01
      Fe  8.60965e+00  8.60973e+00  8.60963e+00
      Fe  1.00374e+01  1.00374e+01  1.00373e+01
      Fe  1.14650e+01  8.60973e+00  8.60968e+00
      Fe  1.28928e+01  1.00374e+01  1.00374e+01
      Fe  4.34830e-02  1.14651e+01  8.60971e+00
      Fe  1.47114e+00  1.28928e+01  1.00374e+01
      Fe  2.89886e+00  1.14651e+01  8.60973e+00
      Fe  4.32658e+00  1.28928e+01  1.00374e+01
      Fe  5.75429e+00  1.14651e+01  8.60971e+00
      Fe  7.18200e+00  1.28928e+01  1.00374e+01
      Fe  8.60969e+00  1.14651e+01  8.60964e+00
      Fe  1.00374e+01  1.28928e+01  1.00373e+01
      Fe  1.14651e+01  1.14651e+01  8.60964e+00
      Fe  1.28928e+01  1.28928e+01  1.00374e+01
      Fe  4.35188e-02  4.35390e-02  1.14651e+01
      Fe  1.47121e+00  1.47118e+00  1.28928e+01
      Fe  2.89894e+00  4.34307e-02  1.14651e+01
      Fe  4.32662e+00  1.47111e+00  1.28928e+01
      Fe  5.75429e+00  4.33982e-02  1.14651e+01
      Fe  7.18197e+00  1.47118e+00  1.28928e+01
      Fe  8.60966e+00  4.34224e-02  1.14651e+01
      Fe  1.00374e+01  1.47123e+00  1.28928e+01
      Fe  1.14651e+01  4.35550e-02  1.14650e+01
      Fe  1.28927e+01  1.47121e+00  1.28928e+01
      Fe  4.34617e-02  2.89898e+00  1.14651e+01
      Fe  1.47115e+00  4.32661e+00  1.28928e+01
      Fe  2.89887e+00  2.89894e+00  1.14651e+01
      Fe  4.32655e+00  4.32654e+00  1.28928e+01
      Fe  5.75425e+00  2.89889e+00  1.14651e+01
      Fe  7.18196e+00  4.32665e+00  1.28928e+01
      Fe  8.60962e+00  2.89887e+00  1.14651e+01
      Fe  1.00374e+01  4.32662e+00  1.28928e+01
      Fe  1.14650e+01  2.89895e+00  1.14650e+01
      Fe  1.28927e+01  4.32661e+00  1.28928e+01
      Fe  4.34493e-02  5.75427e+00  1.14651e+01
      Fe  1.47113e+00  7.18206e+00  1.28927e+01
      Fe  2.89888e+00  5.75426e+00  1.14651e+01
      Fe  4.32652e+00  7.18206e+00  1.28928e+01
      Fe  5.75421e+00  5.75424e+00  1.14650e+01
      Fe  7.18198e+00  7.18199e+00  1.28928e+01
      Fe  8.60969e+00  5.75428e+00  1.14651e+01
      Fe  1.00373e+01  7.18204e+00  1.28928e+01
      Fe  1.14650e+01  5.75433e+00  1.14651e+01
      Fe  1.28928e+01  7.18200e+00  1.28928e+01
      Fe  4.34255e-02  8.60971e+00  1.14650e+01
      Fe  1.47116e+00  1.00374e+01  1.28928e+01
      Fe  2.89883e+00  8.60972e+00  1.14650e+01
      Fe  4.32658e+00  1.00374e+01  1.28927e+01
      Fe  5.75424e+00  8.60963e+00  1.14651e+01
      Fe  7.18200e+00  1.00374e+01  1.28928e+01
      Fe  8.60966e+00  8.60967e+00  1.14650e+01
      Fe  1.00374e+01  1.00374e+01  1.28928e+01
      Fe  1.14650e+01  8.60967e+00  1.14651e+01
      Fe  1.28927e+01  1.00374e+01  1.28928e+01
      Fe  4.34545e-02  1.14651e+01  1.14651e+01
      Fe  1.47122e+00  1.28927e+01  1.28928e+01
      Fe  2.89889e+00  1.14651e+01  1.14650e+01
      Fe  4.32659e+00  1.28927e+01  1.28928e+01
      Fe  5.75425e+00  1.14651e+01  1.14651e+01
      Fe  7.18199e+00  1.28927e+01  1.28928e+01
      Fe  8.60978e+00  1.14651e+01  1.14651e+01
      Fe  1.00374e+01  1.28928e+01  1.28927e+01
      Fe  1.14651e+01  1.14651e+01  1.14651e+01
      Fe  1.28928e+01  1.28928e+01  1.28928e+01
