LAMMPS data file via write_data, version 6 Apr 2015, timestep = 1

1320 atoms
1 atom types

-1.6422748244708757e-04 2.7042530987808750e+01 xlo xhi
-1.5802796864435368e-04 2.6021687575633642e+01 ylo yhi
-1.4193222569599352e-04 2.3371280829021799e+01 zlo zhi

Masses

1 55.85

Atoms # atomic

2 1 7.5102175072008592e-01 1.3009342522114675e+00 2.1245328642513446e+00 0 0 0
4 1 -1.6422748244693253e-04 -1.5802796864309020e-04 -1.4193222569502950e-04 0 0 0
5 1 2.2533937071251535e+00 1.3009342522114675e+00 -1.4193222569502950e-04 0 0 0
48 1 3.0045796853276849e+00 -1.5802796864308998e-04 2.1245328642513446e+00 0 0 0
49 1 4.5069516417327540e+00 -1.5802796864309080e-04 -1.4193222569502950e-04 0 0 0
50 1 5.2581376199352832e+00 1.3009342522114675e+00 2.1245328642513450e+00 0 0 0
67 1 6.7605095763403495e+00 1.3009342522114675e+00 -1.4193222569564606e-04 0 0 0
155 1 7.5116955545428814e+00 -1.5802796864309109e-04 2.1245328642513446e+00 0 0 0
180 1 9.7652534891504796e+00 1.3009342522114675e+00 2.1245328642513455e+00 0 0 0
182 1 9.0140675109479549e+00 -1.5802796864308833e-04 -1.4193222569502950e-04 0 0 0
183 1 1.1267625445555547e+01 1.3009342522114680e+00 -1.4193222569502950e-04 0 0 0
307 1 1.2018811423758081e+01 -1.5802796864308825e-04 2.1245328642513455e+00 0 0 0
308 1 1.3521183380163146e+01 -1.5802796864308998e-04 -1.4193222569502950e-04 0 0 0
309 1 1.4272369358365681e+01 1.3009342522114680e+00 2.1245328642513446e+00 0 0 0
336 1 1.5774741314770749e+01 1.3009342522114671e+00 -1.4193222569502950e-04 0 0 0
435 1 1.6525927292973275e+01 -1.5802796864308987e-04 2.1245328642513432e+00 0 0 0
462 1 1.8028299249378357e+01 -1.5802796864308922e-04 -1.4193222569502950e-04 0 0 0
460 1 1.8779485227580881e+01 1.3009342522114671e+00 2.1245328642513464e+00 0 0 0
463 1 2.0281857183985949e+01 1.3009342522114684e+00 -1.4193222569432341e-04 0 0 0
587 1 2.1033043162188473e+01 -1.5802796864308898e-04 2.1245328642513464e+00 0 0 0
588 1 2.2535415118593541e+01 -1.5802796864308917e-04 -1.4193222569502950e-04 0 0 0
589 1 2.3286601096796083e+01 1.3009342522114684e+00 2.1245328642513464e+00 0 0 0
616 1 2.4788973053201151e+01 1.3009342522114671e+00 -1.4193222569432252e-04 0 0 0
715 1 2.5540159031403672e+01 -1.5802796864308931e-04 2.1245328642513446e+00 0 0 0
1 1 -1.6422748244693253e-04 2.6020265323915797e+00 -1.4193222569502950e-04 0 0 0
3 1 7.5102175072008592e-01 3.9031188125716909e+00 2.1245328642513446e+00 0 0 0
10 1 2.2533937071251535e+00 3.9031188125716909e+00 -1.4193222569502950e-04 0 0 0
45 1 3.0045796853276849e+00 2.6020265323915797e+00 2.1245328642513446e+00 0 0 0
64 1 5.2581376199352832e+00 3.9031188125716909e+00 2.1245328642513450e+00 0 0 0
66 1 4.5069516417327540e+00 2.6020265323915797e+00 -1.4193222569502950e-04 0 0 0
68 1 6.7605095763403495e+00 3.9031188125716909e+00 -1.4193222569502950e-04 0 0 0
178 1 7.5116955545428814e+00 2.6020265323915797e+00 2.1245328642513446e+00 0 0 0
179 1 9.0140675109479549e+00 2.6020265323915805e+00 -1.4193222569502950e-04 0 0 0
181 1 9.7652534891504796e+00 3.9031188125716909e+00 2.1245328642513450e+00 0 0 0
210 1 1.1267625445555547e+01 3.9031188125716909e+00 -1.4193222569520143e-04 0 0 0
304 1 1.2018811423758081e+01 2.6020265323915805e+00 2.1245328642513455e+00 0 0 0
333 1 1.4272369358365681e+01 3.9031188125716909e+00 2.1245328642513455e+00 0 0 0
335 1 1.3521183380163146e+01 2.6020265323915797e+00 -1.4193222569520137e-04 0 0 0
337 1 1.5774741314770749e+01 3.9031188125716931e+00 -1.4193222569502950e-04 0 0 0
458 1 1.6525927292973275e+01 2.6020265323915797e+00 2.1245328642513446e+00 0 0 0
461 1 1.8779485227580881e+01 3.9031188125716931e+00 2.1245328642513464e+00 0 0 0
490 1 2.0281857183985949e+01 3.9031188125716909e+00 -1.4193222569432263e-04 0 0 0
584 1 2.1033043162188473e+01 2.6020265323915805e+00 2.1245328642513446e+00 0 0 0
615 1 2.2535415118593541e+01 2.6020265323915805e+00 -1.4193222569502950e-04 0 0 0
613 1 2.3286601096796083e+01 3.9031188125716909e+00 2.1245328642513464e+00 0 0 0
617 1 2.4788973053201151e+01 3.9031188125716931e+00 -1.4193222569432024e-04 0 0 0
738 1 2.5540159031403672e+01 2.6020265323915805e+00 2.1245328642513446e+00 0 0 0
7 1 7.5102175072008592e-01 6.5053033729319143e+00 2.1245328642513450e+00 0 0 0
9 1 -1.6422748244693253e-04 5.2042110927518035e+00 -1.4193222569502950e-04 0 0 0
11 1 2.2533937071251535e+00 6.5053033729319143e+00 -1.4193222569502950e-04 0 0 0
62 1 3.0045796853276849e+00 5.2042110927518035e+00 2.1245328642513446e+00 0 0 0
63 1 4.5069516417327540e+00 5.2042110927518035e+00 -1.4193222569502950e-04 0 0 0
65 1 5.2581376199352832e+00 6.5053033729319143e+00 2.1245328642513446e+00 0 0 0
85 1 6.7605095763403495e+00 6.5053033729319143e+00 -1.4193222569564530e-04 0 0 0
175 1 7.5116955545428841e+00 5.2042110927518035e+00 2.1245328642513441e+00 0 0 0
207 1 9.7652534891504796e+00 6.5053033729319143e+00 2.1245328642513455e+00 0 0 0
209 1 9.0140675109479549e+00 5.2042110927518035e+00 -1.4193222569502950e-04 0 0 0
211 1 1.1267625445555547e+01 6.5053033729319178e+00 -1.4193222569502950e-04 0 0 0
331 1 1.2018811423758081e+01 5.2042110927518035e+00 2.1245328642513455e+00 0 0 0
332 1 1.3521183380163146e+01 5.2042110927518053e+00 -1.4193222569502950e-04 0 0 0
334 1 1.4272369358365681e+01 6.5053033729319178e+00 2.1245328642513446e+00 0 0 0
363 1 1.5774741314770749e+01 6.5053033729319143e+00 -1.4193222569502950e-04 0 0 0
455 1 1.6525927292973275e+01 5.2042110927518053e+00 2.1245328642513432e+00 0 0 0
489 1 1.8028299249378357e+01 5.2042110927518053e+00 -1.4193222569502950e-04 0 0 0
487 1 1.8779485227580881e+01 6.5053033729319143e+00 2.1245328642513464e+00 0 0 0
491 1 2.0281857183985949e+01 6.5053033729319178e+00 -1.4193222569432290e-04 0 0 0
611 1 2.1033043162188473e+01 5.2042110927518053e+00 2.1245328642513464e+00 0 0 0
612 1 2.2535415118593541e+01 5.2042110927518053e+00 -1.4193222569502950e-04 0 0 0
614 1 2.3286601096796083e+01 6.5053033729319178e+00 2.1245328642513464e+00 0 0 0
643 1 2.4788973053201151e+01 6.5053033729319143e+00 -1.4193222569431989e-04 0 0 0
735 1 2.5540159031403672e+01 5.2042110927518053e+00 2.1245328642513446e+00 0 0 0
6 1 -1.6422748244693253e-04 7.8063956531120260e+00 -1.4193222569502950e-04 0 0 0
59 1 3.0045796853276849e+00 7.8063956531120260e+00 2.1245328642513446e+00 0 0 0
84 1 4.5069516417327540e+00 7.8063956531120260e+00 -1.4193222569502950e-04 0 0 0
205 1 7.5116955545428814e+00 7.8063956531120260e+00 2.1245328642513446e+00 0 0 0
206 1 9.0140675109479549e+00 7.8063956531120260e+00 -1.4193222569502950e-04 0 0 0
328 1 1.2018811423758081e+01 7.8063956531120260e+00 2.1245328642513446e+00 0 0 0
362 1 1.3521183380163146e+01 7.8063956531120260e+00 -1.4193222569502950e-04 0 0 0
485 1 1.6525927292973275e+01 7.8063956531120260e+00 2.1245328642513432e+00 0 0 0
486 1 1.8028299249378357e+01 7.8063956531120260e+00 -1.4193222569502950e-04 0 0 0
608 1 2.1033043162188473e+01 7.8063956531120260e+00 2.1245328642513464e+00 0 0 0
642 1 2.2535415118593541e+01 7.8063956531120260e+00 -1.4193222569430956e-04 0 0 0
760 1 2.5540159031403672e+01 7.8063956531120260e+00 2.1245328642513464e+00 0 0 0
8 1 7.5102175072008648e-01 9.1074879332921359e+00 2.1245328642513441e+00 0 0 0
15 1 -1.6422748244693253e-04 1.0408580213472250e+01 -1.4193222569502950e-04 0 0 0
16 1 2.2533937071251517e+00 9.1074879332921359e+00 -1.4193222569564468e-04 0 0 0
80 1 3.0045796853276849e+00 1.0408580213472250e+01 2.1245328642513446e+00 0 0 0
81 1 4.5069516417327504e+00 1.0408580213472254e+01 -1.4193222569502950e-04 0 0 0
82 1 5.2581376199352832e+00 9.1074879332921359e+00 2.1245328642513455e+00 0 0 0
86 1 6.7605095763403495e+00 9.1074879332921412e+00 -1.4193222569502950e-04 0 0 0
202 1 7.5116955545428814e+00 1.0408580213472254e+01 2.1245328642513441e+00 0 0 0
208 1 9.7652534891504796e+00 9.1074879332921412e+00 2.1245328642513446e+00 0 0 0
233 1 9.0140675109479549e+00 1.0408580213472250e+01 -1.4193222569502950e-04 0 0 0
234 1 1.1267625445555547e+01 9.1074879332921412e+00 -1.4193222569502950e-04 0 0 0
358 1 1.2018811423758089e+01 1.0408580213472250e+01 2.1245328642513446e+00 0 0 0
359 1 1.3521183380163146e+01 1.0408580213472254e+01 -1.4193222569502950e-04 0 0 0
360 1 1.4272369358365681e+01 9.1074879332921412e+00 2.1245328642513446e+00 0 0 0
364 1 1.5774741314770749e+01 9.1074879332921412e+00 -1.4193222569502950e-04 0 0 0
482 1 1.6525927292973275e+01 1.0408580213472254e+01 2.1245328642513432e+00 0 0 0
513 1 1.8028299249378357e+01 1.0408580213472250e+01 -1.4193222569502950e-04 0 0 0
488 1 1.8779485227580881e+01 9.1074879332921412e+00 2.1245328642513464e+00 0 0 0
514 1 2.0281857183985949e+01 9.1074879332921359e+00 -1.4193222569255207e-04 0 0 0
638 1 2.1033043162188473e+01 1.0408580213472250e+01 2.1245328642513464e+00 0 0 0
639 1 2.2535415118593541e+01 1.0408580213472254e+01 -1.4193222569502950e-04 0 0 0
640 1 2.3286601096796083e+01 9.1074879332921359e+00 2.1245328642513481e+00 0 0 0
644 1 2.4788973053201151e+01 9.1074879332921412e+00 -1.4193222569502950e-04 0 0 0
757 1 2.5540159031403672e+01 1.0408580213472254e+01 2.1245328642513446e+00 0 0 0
12 1 -1.6422748244693253e-04 1.3010764773832479e+01 -1.4193222569502950e-04 0 0 0
13 1 7.5102175072008648e-01 1.1709672493652365e+01 2.1245328642513455e+00 0 0 0
17 1 2.2533937071251517e+00 1.1709672493652365e+01 -1.4193222569502950e-04 0 0 0
77 1 3.0045796853276849e+00 1.3010764773832479e+01 2.1245328642513446e+00 0 0 0
83 1 5.2581376199352832e+00 1.1709672493652365e+01 2.1245328642513441e+00 0 0 0
102 1 4.5069516417327540e+00 1.3010764773832472e+01 -1.4193222569502950e-04 0 0 0
103 1 6.7605095763403495e+00 1.1709672493652365e+01 -1.4193222569502950e-04 0 0 0
229 1 7.5116955545428841e+00 1.3010764773832472e+01 2.1245328642513432e+00 0 0 0
230 1 9.0140675109479549e+00 1.3010764773832472e+01 -1.4193222569502950e-04 0 0 0
231 1 9.7652534891504796e+00 1.1709672493652365e+01 2.1245328642513450e+00 0 0 0
235 1 1.1267625445555547e+01 1.1709672493652365e+01 -1.4193222569502950e-04 0 0 0
355 1 1.2018811423758081e+01 1.3010764773832472e+01 2.1245328642513455e+00 0 0 0
361 1 1.4272369358365681e+01 1.1709672493652365e+01 2.1245328642513446e+00 0 0 0
382 1 1.3521183380163146e+01 1.3010764773832472e+01 -1.4193222569519912e-04 0 0 0
383 1 1.5774741314770749e+01 1.1709672493652365e+01 -1.4193222569520384e-04 0 0 0
509 1 1.6525927292973275e+01 1.3010764773832472e+01 2.1245328642513446e+00 0 0 0
511 1 1.8779485227580881e+01 1.1709672493652365e+01 2.1245328642513468e+00 0 0 0
515 1 2.0281857183985949e+01 1.1709672493652365e+01 -1.4193222569502950e-04 0 0 0
635 1 2.1033043162188473e+01 1.3010764773832479e+01 2.1245328642513428e+00 0 0 0
662 1 2.2535415118593541e+01 1.3010764773832479e+01 -1.4193222569502950e-04 0 0 0
641 1 2.3286601096796083e+01 1.1709672493652365e+01 2.1245328642513446e+00 0 0 0
663 1 2.4788973053201151e+01 1.1709672493652365e+01 -1.4193222569431713e-04 0 0 0
778 1 2.5540159031403672e+01 1.3010764773832479e+01 2.1245328642513446e+00 0 0 0
14 1 7.5102175072008592e-01 1.4311857054012588e+01 2.1245328642513446e+00 0 0 0
22 1 2.2533937071251535e+00 1.4311857054012588e+01 -1.4193222569502950e-04 0 0 0
100 1 5.2581376199352876e+00 1.4311857054012588e+01 2.1245328642513450e+00 0 0 0
104 1 6.7605095763403495e+00 1.4311857054012588e+01 -1.4193222569502950e-04 0 0 0
232 1 9.7652534891504796e+00 1.4311857054012588e+01 2.1245328642513446e+00 0 0 0
250 1 1.1267625445555547e+01 1.4311857054012588e+01 -1.4193222569431317e-04 0 0 0
380 1 1.4272369358365681e+01 1.4311857054012588e+01 2.1245328642513464e+00 0 0 0
512 1 1.8779485227580881e+01 1.4311857054012588e+01 2.1245328642513446e+00 0 0 0
530 1 2.0281857183985949e+01 1.4311857054012588e+01 -1.4193222569502950e-04 0 0 0
660 1 2.3286601096796083e+01 1.4311857054012588e+01 2.1245328642513446e+00 0 0 0
664 1 2.4788973053201151e+01 1.4311857054012588e+01 -1.4193222569502950e-04 0 0 0
19 1 7.5102175072008648e-01 1.6914041614372806e+01 2.1245328642513446e+00 0 0 0
21 1 -1.6422748244693253e-04 1.5612949334192695e+01 -1.4193222569502950e-04 0 0 0
23 1 2.2533937071251517e+00 1.6914041614372806e+01 -1.4193222569502950e-04 0 0 0
98 1 3.0045796853276849e+00 1.5612949334192695e+01 2.1245328642513446e+00 0 0 0
99 1 4.5069516417327540e+00 1.5612949334192695e+01 -1.4193222569502950e-04 0 0 0
101 1 5.2581376199352832e+00 1.6914041614372806e+01 2.1245328642513450e+00 0 0 0
115 1 6.7605095763403495e+00 1.6914041614372806e+01 -1.4193222569476103e-04 0 0 0
226 1 7.5116955545428841e+00 1.5612949334192695e+01 2.1245328642513446e+00 0 0 0
247 1 9.7652534891504796e+00 1.6914041614372806e+01 2.1245328642513464e+00 0 0 0
249 1 9.0140675109479549e+00 1.5612949334192695e+01 -1.4193222569502950e-04 0 0 0
378 1 1.2018811423758081e+01 1.5612949334192695e+01 2.1245328642513455e+00 0 0 0
379 1 1.3521183380163146e+01 1.5612949334192695e+01 -1.4193222569502950e-04 0 0 0
381 1 1.4272369358365681e+01 1.6914041614372806e+01 2.1245328642513428e+00 0 0 0
395 1 1.5774741314770749e+01 1.6914041614372806e+01 -1.4193222569502950e-04 0 0 0
506 1 1.6525927292973275e+01 1.5612949334192695e+01 2.1245328642513428e+00 0 0 0
527 1 1.8779485227580881e+01 1.6914041614372806e+01 2.1245328642513464e+00 0 0 0
531 1 2.0281857183985949e+01 1.6914041614372806e+01 -1.4193222569502950e-04 0 0 0
658 1 2.1033043162188473e+01 1.5612949334192695e+01 2.1245328642513446e+00 0 0 0
659 1 2.2535415118593541e+01 1.5612949334192695e+01 -1.4193222569502950e-04 0 0 0
661 1 2.3286601096796083e+01 1.6914041614372806e+01 2.1245328642513446e+00 0 0 0
675 1 2.4788973053201151e+01 1.6914041614372806e+01 -1.4193222569432168e-04 0 0 0
775 1 2.5540159031403672e+01 1.5612949334192695e+01 2.1245328642513446e+00 0 0 0
18 1 -1.6422748244693253e-04 1.8215133894552928e+01 -1.4193222569502950e-04 0 0 0
20 1 7.5102175072008648e-01 1.9516226174733035e+01 2.1245328642513432e+00 0 0 0
28 1 2.2533937071251517e+00 1.9516226174733035e+01 -1.4193222569520495e-04 0 0 0
95 1 3.0045796853276849e+00 1.8215133894552928e+01 2.1245328642513446e+00 0 0 0
112 1 5.2581376199352832e+00 1.9516226174733035e+01 2.1245328642513464e+00 0 0 0
114 1 4.5069516417327504e+00 1.8215133894552917e+01 -1.4193222569520262e-04 0 0 0
116 1 6.7605095763403495e+00 1.9516226174733035e+01 -1.4193222569502950e-04 0 0 0
245 1 7.5116955545428814e+00 1.8215133894552917e+01 2.1245328642513455e+00 0 0 0
248 1 9.7652534891504796e+00 1.9516226174733035e+01 2.1245328642513432e+00 0 0 0
258 1 1.1267625445555547e+01 1.9516226174733035e+01 -1.4193222569502950e-04 0 0 0
375 1 1.2018811423758081e+01 1.8215133894552928e+01 2.1245328642513432e+00 0 0 0
392 1 1.4272369358365681e+01 1.9516226174733035e+01 2.1245328642513446e+00 0 0 0
394 1 1.3521183380163146e+01 1.8215133894552928e+01 -1.4193222569502950e-04 0 0 0
525 1 1.6525927292973275e+01 1.8215133894552928e+01 2.1245328642513428e+00 0 0 0
528 1 1.8779485227580881e+01 1.9516226174733035e+01 2.1245328642513446e+00 0 0 0
538 1 2.0281857183985949e+01 1.9516226174733035e+01 -1.4193222569432572e-04 0 0 0
655 1 2.1033043162188473e+01 1.8215133894552928e+01 2.1245328642513446e+00 0 0 0
674 1 2.2535415118593541e+01 1.8215133894552928e+01 -1.4193222569502950e-04 0 0 0
672 1 2.3286601096796083e+01 1.9516226174733035e+01 2.1245328642513464e+00 0 0 0
676 1 2.4788973053201151e+01 1.9516226174733035e+01 -1.4193222569502950e-04 0 0 0
788 1 2.5540159031403672e+01 1.8215133894552928e+01 2.1245328642513446e+00 0 0 0
27 1 -1.6422748244693253e-04 2.0817318454913146e+01 -1.4193222569502950e-04 0 0 0
110 1 3.0045796853276849e+00 2.0817318454913146e+01 2.1245328642513446e+00 0 0 0
242 1 7.5116955545428814e+00 2.0817318454913153e+01 2.1245328642513428e+00 0 0 0
257 1 9.0140675109479478e+00 2.0817318454913153e+01 -1.4193222569502950e-04 0 0 0
390 1 1.2018811423758081e+01 2.0817318454913153e+01 2.1245328642513446e+00 0 0 0
391 1 1.3521183380163146e+01 2.0817318454913153e+01 -1.4193222569502950e-04 0 0 0
522 1 1.6525927292973275e+01 2.0817318454913153e+01 2.1245328642513428e+00 0 0 0
670 1 2.1033043162188473e+01 2.0817318454913146e+01 2.1245328642513446e+00 0 0 0
671 1 2.2535415118593541e+01 2.0817318454913153e+01 -1.4193222569502950e-04 0 0 0
785 1 2.5540159031403672e+01 2.0817318454913153e+01 2.1245328642513446e+00 0 0 0
24 1 -1.6422748244693253e-04 2.3419503015273374e+01 -1.4193222569502950e-04 0 0 0
25 1 7.5102175072008648e-01 2.2118410735093253e+01 2.1245328642513468e+00 0 0 0
107 1 3.0045796853276849e+00 2.3419503015273374e+01 2.1245328642513446e+00 0 0 0
113 1 5.2581376199352832e+00 2.2118410735093253e+01 2.1245328642513428e+00 0 0 0
119 1 6.7605095763403495e+00 2.2118410735093263e+01 -1.4193222569502950e-04 0 0 0
253 1 7.5116955545428814e+00 2.3419503015273374e+01 2.1245328642513428e+00 0 0 0
255 1 9.7652534891504796e+00 2.2118410735093263e+01 2.1245328642513446e+00 0 0 0
259 1 1.1267625445555547e+01 2.2118410735093253e+01 -1.4193222569502950e-04 0 0 0
387 1 1.2018811423758089e+01 2.3419503015273374e+01 2.1245328642513432e+00 0 0 0
393 1 1.4272369358365681e+01 2.2118410735093253e+01 2.1245328642513432e+00 0 0 0
398 1 1.3521183380163146e+01 2.3419503015273374e+01 -1.4193222569502950e-04 0 0 0
399 1 1.5774741314770749e+01 2.2118410735093263e+01 -1.4193222569502950e-04 0 0 0
533 1 1.6525927292973275e+01 2.3419503015273374e+01 2.1245328642513432e+00 0 0 0
535 1 1.8779485227580881e+01 2.2118410735093263e+01 2.1245328642513464e+00 0 0 0
539 1 2.0281857183985949e+01 2.2118410735093253e+01 -1.4193222569502950e-04 0 0 0
667 1 2.1033043162188473e+01 2.3419503015273374e+01 2.1245328642513446e+00 0 0 0
678 1 2.2535415118593541e+01 2.3419503015273374e+01 -1.4193222569502950e-04 0 0 0
673 1 2.3286601096796083e+01 2.2118410735093253e+01 2.1245328642513446e+00 0 0 0
679 1 2.4788973053201151e+01 2.2118410735093263e+01 -1.4193222569431913e-04 0 0 0
790 1 2.5540159031403672e+01 2.3419503015273374e+01 2.1245328642513446e+00 0 0 0
26 1 7.5102175072008648e-01 2.4720595295453482e+01 2.1245328642513432e+00 0 0 0
30 1 2.2533937071251517e+00 2.4720595295453482e+01 -1.4193222569520506e-04 0 0 0
117 1 5.2581376199352832e+00 2.4720595295453482e+01 2.1245328642513464e+00 0 0 0
256 1 9.7652534891504796e+00 2.4720595295453482e+01 2.1245328642513428e+00 0 0 0
260 1 1.1267625445555547e+01 2.4720595295453482e+01 -1.4193222569502950e-04 0 0 0
397 1 1.4272369358365681e+01 2.4720595295453482e+01 2.1245328642513446e+00 0 0 0
400 1 1.5774741314770749e+01 2.4720595295453482e+01 -1.4193222569502950e-04 0 0 0
536 1 1.8779485227580881e+01 2.4720595295453482e+01 2.1245328642513455e+00 0 0 0
540 1 2.0281857183985949e+01 2.4720595295453482e+01 -1.4193222569432152e-04 0 0 0
677 1 2.3286601096796083e+01 2.4720595295453482e+01 2.1245328642513464e+00 0 0 0
680 1 2.4788973053201151e+01 2.4720595295453482e+01 -1.4193222569432320e-04 0 0 0
35 1 1.5022077289226188e+00 -1.5802796864309072e-04 4.2492076607283851e+00 0 0 0
46 1 3.7557656635302186e+00 1.3009342522114675e+00 4.2492076607283851e+00 0 0 0
154 1 6.0093235981378168e+00 -1.5802796864308928e-04 4.2492076607283851e+00 0 0 0
156 1 8.2628815327454141e+00 1.3009342522114675e+00 4.2492076607283860e+00 0 0 0
284 1 1.0516439467353013e+01 -1.5802796864309166e-04 4.2492076607283860e+00 0 0 0
305 1 1.2769997401960612e+01 1.3009342522114675e+00 4.2492076607283860e+00 0 0 0
434 1 1.5023555336568210e+01 -1.5802796864308833e-04 4.2492076607283851e+00 0 0 0
436 1 1.7277113271175814e+01 1.3009342522114680e+00 4.2492076607283868e+00 0 0 0
564 1 1.9530671205783406e+01 -1.5802796864309004e-04 4.2492076607283860e+00 0 0 0
585 1 2.1784229140391016e+01 1.3009342522114671e+00 4.2492076607283868e+00 0 0 0
714 1 2.4037787074998608e+01 -1.5802796864308860e-04 4.2492076607283868e+00 0 0 0
716 1 2.6291345009606218e+01 1.3009342522114684e+00 4.2492076607283868e+00 0 0 0
44 1 1.5022077289226188e+00 2.6020265323915797e+00 4.2492076607283851e+00 0 0 0
47 1 3.7557656635302186e+00 3.9031188125716909e+00 4.2492076607283851e+00 0 0 0
151 1 6.0093235981378168e+00 2.6020265323915797e+00 4.2492076607283851e+00 0 0 0
176 1 8.2628815327454141e+00 3.9031188125716909e+00 4.2492076607283860e+00 0 0 0
303 1 1.0516439467353013e+01 2.6020265323915797e+00 4.2492076607283860e+00 0 0 0
306 1 1.2769997401960612e+01 3.9031188125716909e+00 4.2492076607283851e+00 0 0 0
431 1 1.5023555336568210e+01 2.6020265323915805e+00 4.2492076607283851e+00 0 0 0
456 1 1.7277113271175814e+01 3.9031188125716909e+00 4.2492076607283886e+00 0 0 0
583 1 1.9530671205783406e+01 2.6020265323915797e+00 4.2492076607283868e+00 0 0 0
586 1 2.1784229140391016e+01 3.9031188125716931e+00 4.2492076607283868e+00 0 0 0
711 1 2.4037787074998608e+01 2.6020265323915805e+00 4.2492076607283851e+00 0 0 0
736 1 2.6291345009606218e+01 3.9031188125716909e+00 4.2492076607283868e+00 0 0 0
41 1 1.5022077289226188e+00 5.2042110927518035e+00 4.2492076607283851e+00 0 0 0
60 1 3.7557656635302186e+00 6.5053033729319143e+00 4.2492076607283860e+00 0 0 0
174 1 6.0093235981378168e+00 5.2042110927518035e+00 4.2492076607283851e+00 0 0 0
177 1 8.2628815327454141e+00 6.5053033729319143e+00 4.2492076607283851e+00 0 0 0
300 1 1.0516439467353013e+01 5.2042110927518035e+00 4.2492076607283851e+00 0 0 0
329 1 1.2769997401960612e+01 6.5053033729319143e+00 4.2492076607283860e+00 0 0 0
454 1 1.5023555336568210e+01 5.2042110927518035e+00 4.2492076607283851e+00 0 0 0
457 1 1.7277113271175814e+01 6.5053033729319178e+00 4.2492076607283868e+00 0 0 0
580 1 1.9530671205783406e+01 5.2042110927518053e+00 4.2492076607283860e+00 0 0 0
609 1 2.1784229140391016e+01 6.5053033729319143e+00 4.2492076607283868e+00 0 0 0
734 1 2.4037787074998608e+01 5.2042110927518053e+00 4.2492076607283868e+00 0 0 0
737 1 2.6291345009606218e+01 6.5053033729319178e+00 4.2492076607283868e+00 0 0 0
58 1 1.5022077289226188e+00 7.8063956531120260e+00 4.2492076607283851e+00 0 0 0
171 1 6.0093235981378168e+00 7.8063956531120260e+00 4.2492076607283851e+00 0 0 0
327 1 1.0516439467353013e+01 7.8063956531120260e+00 4.2492076607283860e+00 0 0 0
451 1 1.5023555336568210e+01 7.8063956531120260e+00 4.2492076607283842e+00 0 0 0
607 1 1.9530671205783406e+01 7.8063956531120260e+00 4.2492076607283860e+00 0 0 0
731 1 2.4037787074998608e+01 7.8063956531120260e+00 4.2492076607283868e+00 0 0 0
55 1 1.5022077289226199e+00 1.0408580213472254e+01 4.2492076607283851e+00 0 0 0
61 1 3.7557656635302186e+00 9.1074879332921359e+00 4.2492076607283851e+00 0 0 0
201 1 6.0093235981378168e+00 1.0408580213472250e+01 4.2492076607283851e+00 0 0 0
203 1 8.2628815327454141e+00 9.1074879332921359e+00 4.2492076607283868e+00 0 0 0
324 1 1.0516439467353013e+01 1.0408580213472254e+01 4.2492076607283851e+00 0 0 0
330 1 1.2769997401960612e+01 9.1074879332921412e+00 4.2492076607283851e+00 0 0 0
481 1 1.5023555336568215e+01 1.0408580213472250e+01 4.2492076607283842e+00 0 0 0
483 1 1.7277113271175814e+01 9.1074879332921412e+00 4.2492076607283868e+00 0 0 0
604 1 1.9530671205783406e+01 1.0408580213472254e+01 4.2492076607283860e+00 0 0 0
610 1 2.1784229140391016e+01 9.1074879332921412e+00 4.2492076607283868e+00 0 0 0
756 1 2.4037787074998608e+01 1.0408580213472250e+01 4.2492076607283868e+00 0 0 0
758 1 2.6291345009606218e+01 9.1074879332921359e+00 4.2492076607283886e+00 0 0 0
76 1 1.5022077289226188e+00 1.3010764773832472e+01 4.2492076607283860e+00 0 0 0
78 1 3.7557656635302186e+00 1.1709672493652365e+01 4.2492076607283868e+00 0 0 0
198 1 6.0093235981378168e+00 1.3010764773832479e+01 4.2492076607283851e+00 0 0 0
204 1 8.2628815327454141e+00 1.1709672493652365e+01 4.2492076607283851e+00 0 0 0
354 1 1.0516439467353013e+01 1.3010764773832472e+01 4.2492076607283851e+00 0 0 0
356 1 1.2769997401960612e+01 1.1709672493652365e+01 4.2492076607283851e+00 0 0 0
478 1 1.5023555336568210e+01 1.3010764773832472e+01 4.2492076607283851e+00 0 0 0
484 1 1.7277113271175814e+01 1.1709672493652365e+01 4.2492076607283868e+00 0 0 0
634 1 1.9530671205783406e+01 1.3010764773832472e+01 4.2492076607283868e+00 0 0 0
636 1 2.1784229140391016e+01 1.1709672493652365e+01 4.2492076607283886e+00 0 0 0
753 1 2.4037787074998608e+01 1.3010764773832479e+01 4.2492076607283824e+00 0 0 0
759 1 2.6291345009606218e+01 1.1709672493652365e+01 4.2492076607283851e+00 0 0 0
79 1 3.7557656635302172e+00 1.4311857054012588e+01 4.2492076607283851e+00 0 0 0
227 1 8.2628815327454141e+00 1.4311857054012588e+01 4.2492076607283860e+00 0 0 0
357 1 1.2769997401960612e+01 1.4311857054012588e+01 4.2492076607283851e+00 0 0 0
507 1 1.7277113271175814e+01 1.4311857054012588e+01 4.2492076607283886e+00 0 0 0
637 1 2.1784229140391016e+01 1.4311857054012588e+01 4.2492076607283851e+00 0 0 0
776 1 2.6291345009606218e+01 1.4311857054012588e+01 4.2492076607283851e+00 0 0 0
73 1 1.5022077289226188e+00 1.5612949334192695e+01 4.2492076607283851e+00 0 0 0
96 1 3.7557656635302186e+00 1.6914041614372806e+01 4.2492076607283851e+00 0 0 0
225 1 6.0093235981378168e+00 1.5612949334192695e+01 4.2492076607283851e+00 0 0 0
228 1 8.2628815327454141e+00 1.6914041614372806e+01 4.2492076607283860e+00 0 0 0
351 1 1.0516439467353013e+01 1.5612949334192695e+01 4.2492076607283860e+00 0 0 0
376 1 1.2769997401960612e+01 1.6914041614372806e+01 4.2492076607283868e+00 0 0 0
505 1 1.5023555336568210e+01 1.5612949334192695e+01 4.2492076607283851e+00 0 0 0
508 1 1.7277113271175814e+01 1.6914041614372806e+01 4.2492076607283851e+00 0 0 0
631 1 1.9530671205783406e+01 1.5612949334192695e+01 4.2492076607283851e+00 0 0 0
656 1 2.1784229140391016e+01 1.6914041614372806e+01 4.2492076607283868e+00 0 0 0
774 1 2.4037787074998608e+01 1.5612949334192695e+01 4.2492076607283851e+00 0 0 0
777 1 2.6291345009606218e+01 1.6914041614372806e+01 4.2492076607283851e+00 0 0 0
94 1 1.5022077289226199e+00 1.8215133894552917e+01 4.2492076607283842e+00 0 0 0
97 1 3.7557656635302186e+00 1.9516226174733035e+01 4.2492076607283851e+00 0 0 0
222 1 6.0093235981378168e+00 1.8215133894552928e+01 4.2492076607283851e+00 0 0 0
243 1 8.2628815327454141e+00 1.9516226174733035e+01 4.2492076607283868e+00 0 0 0
374 1 1.0516439467353013e+01 1.8215133894552917e+01 4.2492076607283868e+00 0 0 0
377 1 1.2769997401960612e+01 1.9516226174733035e+01 4.2492076607283842e+00 0 0 0
502 1 1.5023555336568210e+01 1.8215133894552928e+01 4.2492076607283824e+00 0 0 0
523 1 1.7277113271175814e+01 1.9516226174733035e+01 4.2492076607283868e+00 0 0 0
654 1 1.9530671205783406e+01 1.8215133894552928e+01 4.2492076607283851e+00 0 0 0
657 1 2.1784229140391016e+01 1.9516226174733035e+01 4.2492076607283851e+00 0 0 0
771 1 2.4037787074998626e+01 1.8215133894552928e+01 4.2492076607283851e+00 0 0 0
786 1 2.6291345009606218e+01 1.9516226174733035e+01 4.2492076607283868e+00 0 0 0
91 1 1.5022077289226199e+00 2.0817318454913153e+01 4.2492076607283868e+00 0 0 0
241 1 6.0093235981378168e+00 2.0817318454913146e+01 4.2492076607283851e+00 0 0 0
371 1 1.0516439467353013e+01 2.0817318454913153e+01 4.2492076607283842e+00 0 0 0
521 1 1.5023555336568210e+01 2.0817318454913153e+01 4.2492076607283842e+00 0 0 0
651 1 1.9530671205783406e+01 2.0817318454913153e+01 4.2492076607283851e+00 0 0 0
784 1 2.4037787074998626e+01 2.0817318454913146e+01 4.2492076607283851e+00 0 0 0
106 1 1.5022077289226199e+00 2.3419503015273374e+01 4.2492076607283868e+00 0 0 0
108 1 3.7557656635302186e+00 2.2118410735093253e+01 4.2492076607283886e+00 0 0 0
238 1 6.0093235981378168e+00 2.3419503015273374e+01 4.2492076607283851e+00 0 0 0
244 1 8.2628815327454141e+00 2.2118410735093253e+01 4.2492076607283824e+00 0 0 0
386 1 1.0516439467353013e+01 2.3419503015273374e+01 4.2492076607283842e+00 0 0 0
388 1 1.2769997401960612e+01 2.2118410735093263e+01 4.2492076607283851e+00 0 0 0
518 1 1.5023555336568215e+01 2.3419503015273374e+01 4.2492076607283824e+00 0 0 0
524 1 1.7277113271175814e+01 2.2118410735093253e+01 4.2492076607283860e+00 0 0 0
666 1 1.9530671205783406e+01 2.3419503015273374e+01 4.2492076607283860e+00 0 0 0
668 1 2.1784229140391016e+01 2.2118410735093263e+01 4.2492076607283868e+00 0 0 0
781 1 2.4037787074998626e+01 2.3419503015273374e+01 4.2492076607283851e+00 0 0 0
787 1 2.6291345009606218e+01 2.2118410735093253e+01 4.2492076607283851e+00 0 0 0
109 1 3.7557656635302186e+00 2.4720595295453482e+01 4.2492076607283851e+00 0 0 0
252 1 8.2628815327454141e+00 2.4720595295453482e+01 4.2492076607283868e+00 0 0 0
389 1 1.2769997401960612e+01 2.4720595295453482e+01 4.2492076607283824e+00 0 0 0
532 1 1.7277113271175814e+01 2.4720595295453482e+01 4.2492076607283868e+00 0 0 0
669 1 2.1784229140391016e+01 2.4720595295453482e+01 4.2492076607283860e+00 0 0 0
789 1 2.6291345009606218e+01 2.4720595295453482e+01 4.2492076607283868e+00 0 0 0
34 1 -1.6422748244693253e-04 -1.5802796864308868e-04 6.3738824572054265e+00 0 0 0
36 1 2.2533937071251535e+00 1.3009342522114675e+00 6.3738824572054265e+00 0 0 0
135 1 4.5069516417327540e+00 -1.5802796864309142e-04 6.3738824572054265e+00 0 0 0
152 1 6.7605095763403495e+00 1.3009342522114675e+00 6.3738824572054265e+00 0 0 0
283 1 9.0140675109479549e+00 -1.5802796864308977e-04 6.3738824572054265e+00 0 0 0
285 1 1.1267625445555547e+01 1.3009342522114675e+00 6.3738824572054265e+00 0 0 0
415 1 1.3521183380163146e+01 -1.5802796864309074e-04 6.3738824572054265e+00 0 0 0
432 1 1.5774741314770749e+01 1.3009342522114675e+00 6.3738824572054291e+00 0 0 0
563 1 1.8028299249378357e+01 -1.5802796864308792e-04 6.3738824572054282e+00 0 0 0
565 1 2.0281857183985949e+01 1.3009342522114680e+00 6.3738824572054282e+00 0 0 0
695 1 2.2535415118593541e+01 -1.5802796864309001e-04 6.3738824572054265e+00 0 0 0
712 1 2.4788973053201151e+01 1.3009342522114671e+00 6.3738824572054282e+00 0 0 0
31 1 -1.6422748244693253e-04 2.6020265323915805e+00 6.3738824572054265e+00 0 0 0
42 1 2.2533937071251535e+00 3.9031188125716909e+00 6.3738824572054265e+00 0 0 0
150 1 4.5069516417327540e+00 2.6020265323915797e+00 6.3738824572054265e+00 0 0 0
153 1 6.7605095763403495e+00 3.9031188125716909e+00 6.3738824572054265e+00 0 0 0
280 1 9.0140675109479549e+00 2.6020265323915797e+00 6.3738824572054265e+00 0 0 0
301 1 1.1267625445555547e+01 3.9031188125716909e+00 6.3738824572054265e+00 0 0 0
430 1 1.3521183380163146e+01 2.6020265323915797e+00 6.3738824572054265e+00 0 0 0
433 1 1.5774741314770749e+01 3.9031188125716909e+00 6.3738824572054282e+00 0 0 0
560 1 1.8028299249378357e+01 2.6020265323915805e+00 6.3738824572054282e+00 0 0 0